nohup: ignoring input
 argument  1 = test1_mcscf_8_8_2re.nw
  NWChem w/ OpenMP: maximum threads =    1



============================== echo of input deck ==============================
start tce_n2_2re

echo

geometry units bohr
  symmetry c1
  n 0 0   -2.068
  n 0 0    2.068
end

basis
 * library cc-pvdz
end

mcscf
  active  8
  actelec 8
  multiplicity 1
end

task mcscf

scf
thresh 1.0e-10
tol2e 1.0e-10
singlet
rhf
noscf
end

tce
ccsd
lshift 0.2
end

task tce energy

================================================================================


                                         
                                         


             Northwest Computational Chemistry Package (NWChem) 7.0.1
             --------------------------------------------------------


                    Environmental Molecular Sciences Laboratory
                       Pacific Northwest National Laboratory
                                Richland, WA 99352

                              Copyright (c) 1994-2020
                       Pacific Northwest National Laboratory
                            Battelle Memorial Institute

             NWChem is an open-source computational chemistry package
                        distributed under the terms of the
                      Educational Community License (ECL) 2.0
             A copy of the license is included with this distribution
                              in the LICENSE.TXT file

                                  ACKNOWLEDGMENT
                                  --------------

            This software and its documentation were developed at the
            EMSL at Pacific Northwest National Laboratory, a multiprogram
            national laboratory, operated for the U.S. Department of Energy
            by Battelle under Contract Number DE-AC05-76RL01830. Support
            for this work was provided by the Department of Energy Office
            of Biological and Environmental Research, Office of Basic
            Energy Sciences, and the Office of Advanced Scientific Computing.


           Job information
           ---------------

    hostname        = koothan
    program         = /hpc/home/kowalski/nwchem/bin/LINUX64/nwchem
    date            = Wed Apr  7 16:16:54 2021

    compiled        = Sun_Jan_17_18:37:55_2021
    source          = /hpc/home/kowalski/nwchem
    nwchem branch   = 7.0.0
    nwchem revision = nwchem_on_git-2069-ga5c152f2d
    ga revision     = 5.8.0
    use scalapack   = T
    input           = test1_mcscf_8_8_2re.nw
    prefix          = tce_n2_2re.
    data base       = ./tce_n2_2re.db
    status          = startup
    nproc           =        1
    time left       =     -1s



           Memory information
           ------------------

    heap     =   13107200 doubles =    100.0 Mbytes
    stack    =   13107197 doubles =    100.0 Mbytes
    global   =   26214400 doubles =    200.0 Mbytes (distinct from heap & stack)
    total    =   52428797 doubles =    400.0 Mbytes
    verify   = yes
    hardfail = no 


           Directory information
           ---------------------

  0 permanent = .
  0 scratch   = .




                                NWChem Input Module
                                -------------------


 Turning off AUTOSYM since
 SYMMETRY directive was detected!


          ------
          auto-z
          ------
     1 autoz failed with cvr_scaling = 1.2 changing to 1.3
     2 autoz failed with cvr_scaling = 1.3 changing to 1.4
     3 autoz failed with cvr_scaling = 1.4 changing to 1.5
     4 autoz failed with cvr_scaling = 1.5 changing to 1.6
  no constraints, skipping    0.0000000000000000     
  no constraints, skipping    0.0000000000000000     


                             Geometry "geometry" -> ""
                             -------------------------

 Output coordinates in a.u. (scale by  1.000000000 to convert to a.u.)

  No.       Tag          Charge          X              Y              Z
 ---- ---------------- ---------- -------------- -------------- --------------
    1 n                    7.0000     0.00000000     0.00000000    -2.06800000
    2 n                    7.0000     0.00000000     0.00000000     2.06800000

      Atomic Mass 
      ----------- 

      n                 14.003070


 Effective nuclear repulsion energy (a.u.)      11.8471953578

            Nuclear Dipole moment (a.u.) 
            ----------------------------
        X                 Y               Z
 ---------------- ---------------- ----------------
     0.0000000000     0.0000000000     0.0000000000



                                Z-matrix (autoz)
                                -------- 

 Units are Angstrom for bonds and degrees for angles

      Type          Name      I     J     K     L     M      Value
      ----------- --------  ----- ----- ----- ----- ----- ----------
    1 Stretch                  1     2                       2.18868


            XYZ format geometry
            -------------------
     2
 geometry
 n                     0.00000000     0.00000000    -1.09433855
 n                     0.00000000     0.00000000     1.09433855



 Summary of "ao basis" -> "" (cartesian)
 ------------------------------------------------------------------------------
       Tag                 Description            Shells   Functions and Types
 ---------------- ------------------------------  ------  ---------------------
 *                          cc-pvdz                   on all atoms 


                      Basis "ao basis" -> "ao basis" (cartesian)
                      -----
  n (Nitrogen)
  ------------
            Exponent  Coefficients 
       -------------- ---------------------------------------------------------
  1 S  9.04600000E+03  0.000700
  1 S  1.35700000E+03  0.005389
  1 S  3.09300000E+02  0.027406
  1 S  8.77300000E+01  0.103207
  1 S  2.85600000E+01  0.278723
  1 S  1.02100000E+01  0.448540
  1 S  3.83800000E+00  0.278238
  1 S  7.46600000E-01  0.015440

  2 S  9.04600000E+03 -0.000153
  2 S  1.35700000E+03 -0.001208
  2 S  3.09300000E+02 -0.005992
  2 S  8.77300000E+01 -0.024544
  2 S  2.85600000E+01 -0.067459
  2 S  1.02100000E+01 -0.158078
  2 S  3.83800000E+00 -0.121831
  2 S  7.46600000E-01  0.549003

  3 S  2.24800000E-01  1.000000

  4 P  1.35500000E+01  0.039919
  4 P  2.91700000E+00  0.217169
  4 P  7.97300000E-01  0.510319

  5 P  2.18500000E-01  1.000000

  6 D  8.17000000E-01  1.000000



 Summary of "ao basis" -> "ao basis" (cartesian)
 ------------------------------------------------------------------------------
       Tag                 Description            Shells   Functions and Types
 ---------------- ------------------------------  ------  ---------------------
 n                          cc-pvdz                  6       15   3s2p1d



                            NWChem Direct MCSCF Module
                            --------------------------


     -----------------------------------
       Basis functions:             30
       Inactive shells:              3
       Active shells:                8
       Active electrons:             8
       Symmetry:                    a       
       Multiplicity:                 1
       Orbital rotations:          233
     -----------------------------------

     -----------------------------------
       E2 extrapolation:             F
       Conjugacy:                    T
       Micro CI relax:               T
       Canonical orbitals:           T
       Maximum iterations:          20
       Converge threshold:    1.00E-04
       Conjugacy resets:            20
       Initial levelshift:        0.10
     -----------------------------------

      Superposition of Atomic Density Guess
      -------------------------------------

 Sum of atomic energies:        -108.60004629

      Non-variational initial energy
      ------------------------------

 Total energy =    -107.682259
 1-e energy   =    -171.391947
 2-e energy   =      51.862492
 HOMO         =      -0.224504
 LUMO         =      -0.160445


   input molecular orbitals = atomic
  output molecular orbtials = ./tce_n2_2re.movecs

       No. of determinants:          4900


  Starting Orbital Energies
   -15.656722   -15.656655    -1.020585    -0.904795    -0.283565    -0.224504
    -0.224504    -0.160445    -0.160445    -0.057976     0.871135     0.913720
     0.915357     0.915357     1.028921     1.028921     1.060392     1.260210
     1.912564     1.996817     1.996817     2.038414     2.038414     2.048840
     2.048840     2.112617     2.112617     2.467975     3.787133     3.909289

  Orbital Symmetry Irreps
a    a    a    a    a    a    a    a    a    a    a    a    a    a    a   
a    a    a    a    a    a    a    a    a    a    a    a    a    a    a   
    0 shell      1 out of     12 in             0.26 secs
    0 shell      2 out of     12 in             0.26 secs
    0 shell      3 out of     12 in             0.27 secs
    0 shell      4 out of     12 in             0.28 secs
    0 shell      5 out of     12 in             0.29 secs
    0 shell      6 out of     12 in             0.30 secs
    0 shell      7 out of     12 in             0.31 secs
    0 shell      8 out of     12 in             0.33 secs
    0 shell      9 out of     12 in             0.35 secs
    0 shell     10 out of     12 in             0.37 secs
    0 shell     11 out of     12 in             0.40 secs
    0 shell     12 out of     12 in             0.41 secs



          %%%%% MacroIteration   1 %%%%%


          Number of sigma calls:       24
                       o<<<<< (aa):             0.01
                       o<<<<< (bb):             0.01
                       o<<<<< (ab):             0.08
                       o<<<<< (total)           0.10
                       o<<<<< (aa) ff           0.00
                       o<<<<< (aa) gop          0.00
                       o<<<<< (aa) dot          0.00
                       o<<<<< (ab) str          0.00
                       o<<<<< (ab) gath         0.00
                       o<<<<< (ab) dotab        0.00
                       o<<<<< (ab) scat         0.00
                       o<<<<< (ab) sync         0.00
                       o<<<<< Density           0.01
                       o<<<<< Density one       0.00
                       o<<<<< Density two       0.00
                       o<<<<< Density ab        0.01
                       o<<<<< Spin adapt        0.07
                       o<<<<< Symm adapt        0.00

                       o<<<<< (ab) max sync:      0.00

           >>>| Valence CI:            -16.392266783599
           >>>| MCSCF energy:         -108.727481746644
           >>>| Gradient norm:          0.593988893D+00

                              ----- Line search ------

        step       energy         lsg     num-lsg   num-lsh   lsrat    time
      ------- ---------------- --------- --------- --------- ------- --------
       0.0000    -108.72748175 -1.14D-01  0.00D+00  0.00D+00 0.0D+00      0.7
    0 shell      1 out of     12 in             0.87 secs
    0 shell      2 out of     12 in             0.87 secs
    0 shell      3 out of     12 in             0.87 secs
    0 shell      4 out of     12 in             0.87 secs
    0 shell      5 out of     12 in             0.87 secs
    0 shell      6 out of     12 in             0.88 secs
    0 shell      7 out of     12 in             0.88 secs
    0 shell      8 out of     12 in             0.88 secs
    0 shell      9 out of     12 in             0.89 secs
    0 shell     10 out of     12 in             0.89 secs
    0 shell     11 out of     12 in             0.89 secs
    0 shell     12 out of     12 in             0.90 secs

          Number of sigma calls:       26
                       o<<<<< (aa):             0.01
                       o<<<<< (bb):             0.01
                       o<<<<< (ab):             0.08
                       o<<<<< (total)           0.10
                       o<<<<< (aa) ff           0.00
                       o<<<<< (aa) gop          0.00
                       o<<<<< (aa) dot          0.00
                       o<<<<< (ab) str          0.00
                       o<<<<< (ab) gath         0.00
                       o<<<<< (ab) dotab        0.00
                       o<<<<< (ab) scat         0.00
                       o<<<<< (ab) sync         0.00
                       o<<<<< Density           0.01
                       o<<<<< Density one       0.00
                       o<<<<< Density two       0.00
                       o<<<<< Density ab        0.01
                       o<<<<< Spin adapt        0.11
                       o<<<<< Symm adapt        0.00

                       o<<<<< (ab) max sync:      0.00
       1.0000    -108.78834880 -6.97D-03 -7.29D-03  1.07D-01 6.1D-02      1.1
     --- Orbitals canonicalized ---
    0 shell      1 out of     12 in             1.21 secs
    0 shell      2 out of     12 in             1.21 secs
    0 shell      3 out of     12 in             1.21 secs
    0 shell      4 out of     12 in             1.21 secs
    0 shell      5 out of     12 in             1.21 secs
    0 shell      6 out of     12 in             1.22 secs
    0 shell      7 out of     12 in             1.22 secs
    0 shell      8 out of     12 in             1.22 secs
    0 shell      9 out of     12 in             1.22 secs
    0 shell     10 out of     12 in             1.23 secs
    0 shell     11 out of     12 in             1.23 secs
    0 shell     12 out of     12 in             1.23 secs



          %%%%% MacroIteration   2 %%%%%


          Number of sigma calls:       30
                       o<<<<< (aa):             0.01
                       o<<<<< (bb):             0.01
                       o<<<<< (ab):             0.07
                       o<<<<< (total)           0.09
                       o<<<<< (aa) ff           0.00
                       o<<<<< (aa) gop          0.00
                       o<<<<< (aa) dot          0.00
                       o<<<<< (ab) str          0.00
                       o<<<<< (ab) gath         0.00
                       o<<<<< (ab) dotab        0.00
                       o<<<<< (ab) scat         0.00
                       o<<<<< (ab) sync         0.00
                       o<<<<< Density           0.01
                       o<<<<< Density one       0.00
                       o<<<<< Density two       0.00
                       o<<<<< Density ab        0.00
                       o<<<<< Spin adapt        0.14
                       o<<<<< Symm adapt        0.00

                       o<<<<< (ab) max sync:      0.00

           >>>| Valence CI:            -16.513534300400
           >>>| MCSCF energy:         -108.788348802530
           >>>| Gradient norm:          0.467887129D-01
     --- Warning:   17 Hessian diagonals < 0.05 ---
     --- Conjugacy reset ---

                              ----- Line search ------

        step       energy         lsg     num-lsg   num-lsh   lsrat    time
      ------- ---------------- --------- --------- --------- ------- --------
       0.0000    -108.78834880 -2.01D-03  0.00D+00  0.00D+00 0.0D+00      1.7
    0 shell      1 out of     12 in             1.85 secs
    0 shell      2 out of     12 in             1.85 secs
    0 shell      3 out of     12 in             1.85 secs
    0 shell      4 out of     12 in             1.86 secs
    0 shell      5 out of     12 in             1.86 secs
    0 shell      6 out of     12 in             1.86 secs
    0 shell      7 out of     12 in             1.86 secs
    0 shell      8 out of     12 in             1.87 secs
    0 shell      9 out of     12 in             1.87 secs
    0 shell     10 out of     12 in             1.87 secs
    0 shell     11 out of     12 in             1.88 secs
    0 shell     12 out of     12 in             1.88 secs

          Number of sigma calls:       26
                       o<<<<< (aa):             0.01
                       o<<<<< (bb):             0.01
                       o<<<<< (ab):             0.06
                       o<<<<< (total)           0.08
                       o<<<<< (aa) ff           0.00
                       o<<<<< (aa) gop          0.00
                       o<<<<< (aa) dot          0.00
                       o<<<<< (ab) str          0.00
                       o<<<<< (ab) gath         0.00
                       o<<<<< (ab) dotab        0.00
                       o<<<<< (ab) scat         0.00
                       o<<<<< (ab) sync         0.00
                       o<<<<< Density           0.01
                       o<<<<< Density one       0.00
                       o<<<<< Density two       0.00
                       o<<<<< Density ab        0.00
                       o<<<<< Spin adapt        0.17
                       o<<<<< Symm adapt        0.00

                       o<<<<< (ab) max sync:      0.00
       1.0000    -108.78975239 -7.59D-04 -7.78D-04  1.25D-03 3.8D-01      2.0
    0 shell      1 out of     12 in             2.22 secs
    0 shell      2 out of     12 in             2.22 secs
    0 shell      3 out of     12 in             2.22 secs
    0 shell      4 out of     12 in             2.22 secs
    0 shell      5 out of     12 in             2.22 secs
    0 shell      6 out of     12 in             2.23 secs
    0 shell      7 out of     12 in             2.23 secs
    0 shell      8 out of     12 in             2.23 secs
    0 shell      9 out of     12 in             2.24 secs
    0 shell     10 out of     12 in             2.24 secs
    0 shell     11 out of     12 in             2.24 secs
    0 shell     12 out of     12 in             2.24 secs

          Number of sigma calls:       26
                       o<<<<< (aa):             0.01
                       o<<<<< (bb):             0.01
                       o<<<<< (ab):             0.05
                       o<<<<< (total)           0.07
                       o<<<<< (aa) ff           0.00
                       o<<<<< (aa) gop          0.00
                       o<<<<< (aa) dot          0.00
                       o<<<<< (ab) str          0.00
                       o<<<<< (ab) gath         0.00
                       o<<<<< (ab) dotab        0.00
                       o<<<<< (ab) scat         0.00
                       o<<<<< (ab) sync         0.00
                       o<<<<< Density           0.01
                       o<<<<< Density one       0.00
                       o<<<<< Density two       0.00
                       o<<<<< Density ab        0.00
                       o<<<<< Spin adapt        0.20
                       o<<<<< Symm adapt        0.00

                       o<<<<< (ab) max sync:      0.00
       1.6064    -108.78995847  8.56D-05  8.24D-05  1.39D-03 4.3D-02      2.4



          %%%%% MacroIteration   3 %%%%%


          Number of sigma calls:        1
                       o<<<<< (aa):             0.00
                       o<<<<< (bb):             0.00
                       o<<<<< (ab):             0.00
                       o<<<<< (total)           0.00
                       o<<<<< (aa) ff           0.00
                       o<<<<< (aa) gop          0.00
                       o<<<<< (aa) dot          0.00
                       o<<<<< (ab) str          0.00
                       o<<<<< (ab) gath         0.00
                       o<<<<< (ab) dotab        0.00
                       o<<<<< (ab) scat         0.00
                       o<<<<< (ab) sync         0.00
                       o<<<<< Density           0.01
                       o<<<<< Density one       0.00
                       o<<<<< Density two       0.00
                       o<<<<< Density ab        0.01
                       o<<<<< Spin adapt        0.00
                       o<<<<< Symm adapt        0.00

                       o<<<<< (ab) max sync:      0.00

           >>>| Valence CI:            -16.586522766462
           >>>| MCSCF energy:         -108.789958471993
           >>>| Gradient norm:          0.274359581D-01
     --- Warning:    8 Hessian diagonals < 0.05 ---

                              ----- Line search ------

        step       energy         lsg     num-lsg   num-lsh   lsrat    time
      ------- ---------------- --------- --------- --------- ------- --------
       0.0000    -108.78995847 -4.17D-04  0.00D+00  0.00D+00 0.0D+00      2.8
    0 shell      1 out of     12 in             3.00 secs
    0 shell      2 out of     12 in             3.00 secs
    0 shell      3 out of     12 in             3.00 secs
    0 shell      4 out of     12 in             3.00 secs
    0 shell      5 out of     12 in             3.00 secs
    0 shell      6 out of     12 in             3.01 secs
    0 shell      7 out of     12 in             3.01 secs
    0 shell      8 out of     12 in             3.01 secs
    0 shell      9 out of     12 in             3.02 secs
    0 shell     10 out of     12 in             3.02 secs
    0 shell     11 out of     12 in             3.02 secs
    0 shell     12 out of     12 in             3.02 secs

          Number of sigma calls:       27
                       o<<<<< (aa):             0.01
                       o<<<<< (bb):             0.02
                       o<<<<< (ab):             0.06
                       o<<<<< (total)           0.09
                       o<<<<< (aa) ff           0.00
                       o<<<<< (aa) gop          0.00
                       o<<<<< (aa) dot          0.00
                       o<<<<< (ab) str          0.00
                       o<<<<< (ab) gath         0.00
                       o<<<<< (ab) dotab        0.00
                       o<<<<< (ab) scat         0.00
                       o<<<<< (ab) sync         0.00
                       o<<<<< Density           0.01
                       o<<<<< Density one       0.00
                       o<<<<< Density two       0.00
                       o<<<<< Density ab        0.00
                       o<<<<< Spin adapt        0.23
                       o<<<<< Symm adapt        0.00

                       o<<<<< (ab) max sync:      0.00
       1.0000    -108.79027647 -2.19D-04 -2.19D-04  1.98D-04 5.2D-01      3.2
    0 shell      1 out of     12 in             3.42 secs
    0 shell      2 out of     12 in             3.42 secs
    0 shell      3 out of     12 in             3.42 secs
    0 shell      4 out of     12 in             3.43 secs
    0 shell      5 out of     12 in             3.43 secs
    0 shell      6 out of     12 in             3.43 secs
    0 shell      7 out of     12 in             3.43 secs
    0 shell      8 out of     12 in             3.43 secs
    0 shell      9 out of     12 in             3.43 secs
    0 shell     10 out of     12 in             3.44 secs
    0 shell     11 out of     12 in             3.44 secs
    0 shell     12 out of     12 in             3.44 secs

          Number of sigma calls:       27
                       o<<<<< (aa):             0.01
                       o<<<<< (bb):             0.02
                       o<<<<< (ab):             0.06
                       o<<<<< (total)           0.08
                       o<<<<< (aa) ff           0.00
                       o<<<<< (aa) gop          0.00
                       o<<<<< (aa) dot          0.00
                       o<<<<< (ab) str          0.00
                       o<<<<< (ab) gath         0.00
                       o<<<<< (ab) dotab        0.00
                       o<<<<< (ab) scat         0.00
                       o<<<<< (ab) sync         0.00
                       o<<<<< Density           0.01
                       o<<<<< Density one       0.00
                       o<<<<< Density two       0.00
                       o<<<<< Density ab        0.00
                       o<<<<< Spin adapt        0.26
                       o<<<<< Symm adapt        0.00

                       o<<<<< (ab) max sync:      0.00
       2.1014    -108.79039589  1.63D-06  1.66D-06  2.00D-04 3.9D-03      3.6



          %%%%% MacroIteration   4 %%%%%


          Number of sigma calls:        1
                       o<<<<< (aa):             0.00
                       o<<<<< (bb):             0.00
                       o<<<<< (ab):             0.00
                       o<<<<< (total)           0.00
                       o<<<<< (aa) ff           0.00
                       o<<<<< (aa) gop          0.00
                       o<<<<< (aa) dot          0.00
                       o<<<<< (ab) str          0.00
                       o<<<<< (ab) gath         0.00
                       o<<<<< (ab) dotab        0.00
                       o<<<<< (ab) scat         0.00
                       o<<<<< (ab) sync         0.00
                       o<<<<< Density           0.01
                       o<<<<< Density one       0.00
                       o<<<<< Density two       0.00
                       o<<<<< Density ab        0.00
                       o<<<<< Spin adapt        0.00
                       o<<<<< Symm adapt        0.00

                       o<<<<< (ab) max sync:      0.00

           >>>| Valence CI:            -16.554030126575
           >>>| MCSCF energy:         -108.790395885815
           >>>| Gradient norm:          0.283321552D-01
     --- Warning:    8 Hessian diagonals < 0.05 ---

                              ----- Line search ------

        step       energy         lsg     num-lsg   num-lsh   lsrat    time
      ------- ---------------- --------- --------- --------- ------- --------
       0.0000    -108.79039589 -2.36D-04  0.00D+00  0.00D+00 0.0D+00      4.0
    0 shell      1 out of     12 in             4.23 secs
    0 shell      2 out of     12 in             4.24 secs
    0 shell      3 out of     12 in             4.24 secs
    0 shell      4 out of     12 in             4.24 secs
    0 shell      5 out of     12 in             4.24 secs
    0 shell      6 out of     12 in             4.24 secs
    0 shell      7 out of     12 in             4.24 secs
    0 shell      8 out of     12 in             4.25 secs
    0 shell      9 out of     12 in             4.25 secs
    0 shell     10 out of     12 in             4.25 secs
    0 shell     11 out of     12 in             4.25 secs
    0 shell     12 out of     12 in             4.25 secs

          Number of sigma calls:       26
                       o<<<<< (aa):             0.01
                       o<<<<< (bb):             0.02
                       o<<<<< (ab):             0.06
                       o<<<<< (total)           0.08
                       o<<<<< (aa) ff           0.00
                       o<<<<< (aa) gop          0.00
                       o<<<<< (aa) dot          0.00
                       o<<<<< (ab) str          0.00
                       o<<<<< (ab) gath         0.00
                       o<<<<< (ab) dotab        0.00
                       o<<<<< (ab) scat         0.00
                       o<<<<< (ab) sync         0.00
                       o<<<<< Density           0.01
                       o<<<<< Density one       0.00
                       o<<<<< Density two       0.00
                       o<<<<< Density ab        0.00
                       o<<<<< Spin adapt        0.25
                       o<<<<< Symm adapt        0.00

                       o<<<<< (ab) max sync:      0.00
       1.0000    -108.79058475 -1.40D-04 -1.41D-04  9.60D-05 5.9D-01      4.4
    0 shell      1 out of     12 in             4.68 secs
    0 shell      2 out of     12 in             4.68 secs
    0 shell      3 out of     12 in             4.68 secs
    0 shell      4 out of     12 in             4.69 secs
    0 shell      5 out of     12 in             4.69 secs
    0 shell      6 out of     12 in             4.69 secs
    0 shell      7 out of     12 in             4.69 secs
    0 shell      8 out of     12 in             4.69 secs
    0 shell      9 out of     12 in             4.70 secs
    0 shell     10 out of     12 in             4.70 secs
    0 shell     11 out of     12 in             4.70 secs
    0 shell     12 out of     12 in             4.70 secs

          Number of sigma calls:       28
                       o<<<<< (aa):             0.01
                       o<<<<< (bb):             0.02
                       o<<<<< (ab):             0.07
                       o<<<<< (total)           0.10
                       o<<<<< (aa) ff           0.00
                       o<<<<< (aa) gop          0.00
                       o<<<<< (aa) dot          0.00
                       o<<<<< (ab) str          0.00
                       o<<<<< (ab) gath         0.00
                       o<<<<< (ab) dotab        0.00
                       o<<<<< (ab) scat         0.00
                       o<<<<< (ab) sync         0.00
                       o<<<<< Density           0.01
                       o<<<<< Density one       0.00
                       o<<<<< Density two       0.00
                       o<<<<< Density ab        0.00
                       o<<<<< Spin adapt        0.28
                       o<<<<< Symm adapt        0.00

                       o<<<<< (ab) max sync:      0.00
       2.4633    -108.79068441  3.93D-06  4.06D-06  9.86D-05 1.7D-02      4.9



          %%%%% MacroIteration   5 %%%%%


          Number of sigma calls:        1
                       o<<<<< (aa):             0.00
                       o<<<<< (bb):             0.00
                       o<<<<< (ab):             0.00
                       o<<<<< (total)           0.00
                       o<<<<< (aa) ff           0.00
                       o<<<<< (aa) gop          0.00
                       o<<<<< (aa) dot          0.00
                       o<<<<< (ab) str          0.00
                       o<<<<< (ab) gath         0.00
                       o<<<<< (ab) dotab        0.00
                       o<<<<< (ab) scat         0.00
                       o<<<<< (ab) sync         0.00
                       o<<<<< Density           0.01
                       o<<<<< Density one       0.00
                       o<<<<< Density two       0.00
                       o<<<<< Density ab        0.00
                       o<<<<< Spin adapt        0.00
                       o<<<<< Symm adapt        0.00

                       o<<<<< (ab) max sync:      0.00

           >>>| Valence CI:            -16.563977566795
           >>>| MCSCF energy:         -108.790684412815
           >>>| Gradient norm:          0.525668838D-02
     --- Warning:   19 Hessian diagonals < 0.05 ---

                              ----- Line search ------

        step       energy         lsg     num-lsg   num-lsh   lsrat    time
      ------- ---------------- --------- --------- --------- ------- --------
       0.0000    -108.79068441 -4.51D-05  0.00D+00  0.00D+00 0.0D+00      5.4
    0 shell      1 out of     12 in             5.76 secs
    0 shell      2 out of     12 in             5.76 secs
    0 shell      3 out of     12 in             5.76 secs
    0 shell      4 out of     12 in             5.76 secs
    0 shell      5 out of     12 in             5.76 secs
    0 shell      6 out of     12 in             5.76 secs
    0 shell      7 out of     12 in             5.76 secs
    0 shell      8 out of     12 in             5.77 secs
    0 shell      9 out of     12 in             5.77 secs
    0 shell     10 out of     12 in             5.77 secs
    0 shell     11 out of     12 in             5.77 secs
    0 shell     12 out of     12 in             5.78 secs

          Number of sigma calls:       26
                       o<<<<< (aa):             0.01
                       o<<<<< (bb):             0.02
                       o<<<<< (ab):             0.06
                       o<<<<< (total)           0.09
                       o<<<<< (aa) ff           0.00
                       o<<<<< (aa) gop          0.00
                       o<<<<< (aa) dot          0.00
                       o<<<<< (ab) str          0.00
                       o<<<<< (ab) gath         0.00
                       o<<<<< (ab) dotab        0.00
                       o<<<<< (ab) scat         0.00
                       o<<<<< (ab) sync         0.00
                       o<<<<< Density           0.01
                       o<<<<< Density one       0.00
                       o<<<<< Density two       0.00
                       o<<<<< Density ab        0.00
                       o<<<<< Spin adapt        0.24
                       o<<<<< Symm adapt        0.00

                       o<<<<< (ab) max sync:      0.00
       1.0000    -108.79071424 -1.47D-05 -1.46D-05  3.04D-05 3.3D-01      5.8
    0 shell      1 out of     12 in             6.18 secs
    0 shell      2 out of     12 in             6.19 secs
    0 shell      3 out of     12 in             6.19 secs
    0 shell      4 out of     12 in             6.19 secs
    0 shell      5 out of     12 in             6.19 secs
    0 shell      6 out of     12 in             6.20 secs
    0 shell      7 out of     12 in             6.20 secs
    0 shell      8 out of     12 in             6.20 secs
    0 shell      9 out of     12 in             6.20 secs
    0 shell     10 out of     12 in             6.21 secs
    0 shell     11 out of     12 in             6.21 secs
    0 shell     12 out of     12 in             6.21 secs

          Number of sigma calls:       25
                       o<<<<< (aa):             0.01
                       o<<<<< (bb):             0.01
                       o<<<<< (ab):             0.06
                       o<<<<< (total)           0.08
                       o<<<<< (aa) ff           0.00
                       o<<<<< (aa) gop          0.00
                       o<<<<< (aa) dot          0.00
                       o<<<<< (ab) str          0.00
                       o<<<<< (ab) gath         0.00
                       o<<<<< (ab) dotab        0.00
                       o<<<<< (ab) scat         0.00
                       o<<<<< (ab) sync         0.00
                       o<<<<< Density           0.01
                       o<<<<< Density one       0.00
                       o<<<<< Density two       0.00
                       o<<<<< Density ab        0.00
                       o<<<<< Spin adapt        0.23
                       o<<<<< Symm adapt        0.00

                       o<<<<< (ab) max sync:      0.00
       1.4835    -108.79071789 -4.62D-07 -4.36D-07  2.95D-05 1.0D-02      6.2



          %%%%% MacroIteration   6 %%%%%


          Number of sigma calls:        1
                       o<<<<< (aa):             0.00
                       o<<<<< (bb):             0.00
                       o<<<<< (ab):             0.00
                       o<<<<< (total)           0.00
                       o<<<<< (aa) ff           0.00
                       o<<<<< (aa) gop          0.00
                       o<<<<< (aa) dot          0.00
                       o<<<<< (ab) str          0.00
                       o<<<<< (ab) gath         0.00
                       o<<<<< (ab) dotab        0.00
                       o<<<<< (ab) scat         0.00
                       o<<<<< (ab) sync         0.00
                       o<<<<< Density           0.01
                       o<<<<< Density one       0.00
                       o<<<<< Density two       0.00
                       o<<<<< Density ab        0.00
                       o<<<<< Spin adapt        0.00
                       o<<<<< Symm adapt        0.00

                       o<<<<< (ab) max sync:      0.00

           >>>| Valence CI:            -16.562518448470
           >>>| MCSCF energy:         -108.790717892531
           >>>| Gradient norm:          0.237931288D-02
     --- Warning:   19 Hessian diagonals < 0.05 ---

                              ----- Line search ------

        step       energy         lsg     num-lsg   num-lsh   lsrat    time
      ------- ---------------- --------- --------- --------- ------- --------
       0.0000    -108.79071789 -4.19D-06  0.00D+00  0.00D+00 0.0D+00      6.6
    0 shell      1 out of     12 in             7.02 secs
    0 shell      2 out of     12 in             7.02 secs
    0 shell      3 out of     12 in             7.02 secs
    0 shell      4 out of     12 in             7.03 secs
    0 shell      5 out of     12 in             7.03 secs
    0 shell      6 out of     12 in             7.03 secs
    0 shell      7 out of     12 in             7.04 secs
    0 shell      8 out of     12 in             7.04 secs
    0 shell      9 out of     12 in             7.04 secs
    0 shell     10 out of     12 in             7.04 secs
    0 shell     11 out of     12 in             7.05 secs
    0 shell     12 out of     12 in             7.05 secs

          Number of sigma calls:       23
                       o<<<<< (aa):             0.01
                       o<<<<< (bb):             0.01
                       o<<<<< (ab):             0.06
                       o<<<<< (total)           0.08
                       o<<<<< (aa) ff           0.00
                       o<<<<< (aa) gop          0.00
                       o<<<<< (aa) dot          0.00
                       o<<<<< (ab) str          0.00
                       o<<<<< (ab) gath         0.00
                       o<<<<< (ab) dotab        0.00
                       o<<<<< (ab) scat         0.00
                       o<<<<< (ab) sync         0.00
                       o<<<<< Density           0.01
                       o<<<<< Density one       0.00
                       o<<<<< Density two       0.00
                       o<<<<< Density ab        0.00
                       o<<<<< Spin adapt        0.21
                       o<<<<< Symm adapt        0.00

                       o<<<<< (ab) max sync:      0.00
       1.0000    -108.79072057 -1.17D-06 -1.17D-06  3.03D-06 2.8D-01      7.0
    0 shell      1 out of     12 in             7.41 secs
    0 shell      2 out of     12 in             7.41 secs
    0 shell      3 out of     12 in             7.41 secs
    0 shell      4 out of     12 in             7.42 secs
    0 shell      5 out of     12 in             7.42 secs
    0 shell      6 out of     12 in             7.42 secs
    0 shell      7 out of     12 in             7.43 secs
    0 shell      8 out of     12 in             7.43 secs
    0 shell      9 out of     12 in             7.43 secs
    0 shell     10 out of     12 in             7.43 secs
    0 shell     11 out of     12 in             7.44 secs
    0 shell     12 out of     12 in             7.44 secs

          Number of sigma calls:       21
                       o<<<<< (aa):             0.01
                       o<<<<< (bb):             0.01
                       o<<<<< (ab):             0.04
                       o<<<<< (total)           0.06
                       o<<<<< (aa) ff           0.00
                       o<<<<< (aa) gop          0.00
                       o<<<<< (aa) dot          0.00
                       o<<<<< (ab) str          0.00
                       o<<<<< (ab) gath         0.00
                       o<<<<< (ab) dotab        0.00
                       o<<<<< (ab) scat         0.00
                       o<<<<< (ab) sync         0.00
                       o<<<<< Density           0.01
                       o<<<<< Density one       0.00
                       o<<<<< Density two       0.00
                       o<<<<< Density ab        0.00
                       o<<<<< Spin adapt        0.19
                       o<<<<< Symm adapt        0.00

                       o<<<<< (ab) max sync:      0.00
       1.3855    -108.79072080 -3.92D-09 -3.73D-09  3.02D-06 9.3D-04      7.4



          %%%%% MacroIteration   7 %%%%%


          Number of sigma calls:        1
                       o<<<<< (aa):             0.00
                       o<<<<< (bb):             0.00
                       o<<<<< (ab):             0.00
                       o<<<<< (total)           0.00
                       o<<<<< (aa) ff           0.00
                       o<<<<< (aa) gop          0.00
                       o<<<<< (aa) dot          0.00
                       o<<<<< (ab) str          0.00
                       o<<<<< (ab) gath         0.00
                       o<<<<< (ab) dotab        0.00
                       o<<<<< (ab) scat         0.00
                       o<<<<< (ab) sync         0.00
                       o<<<<< Density           0.01
                       o<<<<< Density one       0.00
                       o<<<<< Density two       0.00
                       o<<<<< Density ab        0.00
                       o<<<<< Spin adapt        0.00
                       o<<<<< Symm adapt        0.00

                       o<<<<< (ab) max sync:      0.00

           >>>| Valence CI:            -16.560560665915
           >>>| MCSCF energy:         -108.790720797812
           >>>| Gradient norm:          0.793701450D-03
     --- Warning:   19 Hessian diagonals < 0.05 ---

                              ----- Line search ------

        step       energy         lsg     num-lsg   num-lsh   lsrat    time
      ------- ---------------- --------- --------- --------- ------- --------
       0.0000    -108.79072080 -3.51D-07  0.00D+00  0.00D+00 0.0D+00      7.7
    0 shell      1 out of     12 in             8.11 secs
    0 shell      2 out of     12 in             8.11 secs
    0 shell      3 out of     12 in             8.11 secs
    0 shell      4 out of     12 in             8.11 secs
    0 shell      5 out of     12 in             8.11 secs
    0 shell      6 out of     12 in             8.11 secs
    0 shell      7 out of     12 in             8.12 secs
    0 shell      8 out of     12 in             8.12 secs
    0 shell      9 out of     12 in             8.12 secs
    0 shell     10 out of     12 in             8.13 secs
    0 shell     11 out of     12 in             8.13 secs
    0 shell     12 out of     12 in             8.13 secs

          Number of sigma calls:       21
                       o<<<<< (aa):             0.01
                       o<<<<< (bb):             0.01
                       o<<<<< (ab):             0.04
                       o<<<<< (total)           0.06
                       o<<<<< (aa) ff           0.00
                       o<<<<< (aa) gop          0.00
                       o<<<<< (aa) dot          0.00
                       o<<<<< (ab) str          0.00
                       o<<<<< (ab) gath         0.00
                       o<<<<< (ab) dotab        0.00
                       o<<<<< (ab) scat         0.00
                       o<<<<< (ab) sync         0.00
                       o<<<<< Density           0.01
                       o<<<<< Density one       0.00
                       o<<<<< Density two       0.00
                       o<<<<< Density ab        0.00
                       o<<<<< Spin adapt        0.19
                       o<<<<< Symm adapt        0.00

                       o<<<<< (ab) max sync:      0.00
       1.0000    -108.79072104 -1.28D-07 -1.28D-07  2.24D-07 3.6D-01      8.0
    0 shell      1 out of     12 in             8.46 secs
    0 shell      2 out of     12 in             8.46 secs
    0 shell      3 out of     12 in             8.46 secs
    0 shell      4 out of     12 in             8.46 secs
    0 shell      5 out of     12 in             8.46 secs
    0 shell      6 out of     12 in             8.47 secs
    0 shell      7 out of     12 in             8.47 secs
    0 shell      8 out of     12 in             8.47 secs
    0 shell      9 out of     12 in             8.47 secs
    0 shell     10 out of     12 in             8.47 secs
    0 shell     11 out of     12 in             8.48 secs
    0 shell     12 out of     12 in             8.48 secs

          Number of sigma calls:       20
                       o<<<<< (aa):             0.00
                       o<<<<< (bb):             0.01
                       o<<<<< (ab):             0.04
                       o<<<<< (total)           0.06
                       o<<<<< (aa) ff           0.00
                       o<<<<< (aa) gop          0.00
                       o<<<<< (aa) dot          0.00
                       o<<<<< (ab) str          0.00
                       o<<<<< (ab) gath         0.00
                       o<<<<< (ab) dotab        0.00
                       o<<<<< (ab) scat         0.00
                       o<<<<< (ab) sync         0.00
                       o<<<<< Density           0.01
                       o<<<<< Density one       0.00
                       o<<<<< Density two       0.00
                       o<<<<< Density ab        0.00
                       o<<<<< Spin adapt        0.17
                       o<<<<< Symm adapt        0.00

                       o<<<<< (ab) max sync:      0.00
       1.5721    -108.79072107 -5.48D-11 -5.18D-11  2.23D-07 1.6D-04      8.3



          %%%%% MacroIteration   8 %%%%%


          Number of sigma calls:        1
                       o<<<<< (aa):             0.00
                       o<<<<< (bb):             0.00
                       o<<<<< (ab):             0.00
                       o<<<<< (total)           0.00
                       o<<<<< (aa) ff           0.00
                       o<<<<< (aa) gop          0.00
                       o<<<<< (aa) dot          0.00
                       o<<<<< (ab) str          0.00
                       o<<<<< (ab) gath         0.00
                       o<<<<< (ab) dotab        0.00
                       o<<<<< (ab) scat         0.00
                       o<<<<< (ab) sync         0.00
                       o<<<<< Density           0.01
                       o<<<<< Density one       0.00
                       o<<<<< Density two       0.00
                       o<<<<< Density ab        0.00
                       o<<<<< Spin adapt        0.00
                       o<<<<< Symm adapt        0.00

                       o<<<<< (ab) max sync:      0.00

           >>>| Valence CI:            -16.561314026830
           >>>| MCSCF energy:         -108.790721074051
           >>>| Gradient norm:          0.372471551D-03
     --- Warning:   19 Hessian diagonals < 0.05 ---

                              ----- Line search ------

        step       energy         lsg     num-lsg   num-lsh   lsrat    time
      ------- ---------------- --------- --------- --------- ------- --------
       0.0000    -108.79072107 -9.21D-08  0.00D+00  0.00D+00 0.0D+00      8.7
    0 shell      1 out of     12 in             9.11 secs
    0 shell      2 out of     12 in             9.11 secs
    0 shell      3 out of     12 in             9.11 secs
    0 shell      4 out of     12 in             9.11 secs
    0 shell      5 out of     12 in             9.11 secs
    0 shell      6 out of     12 in             9.11 secs
    0 shell      7 out of     12 in             9.11 secs
    0 shell      8 out of     12 in             9.12 secs
    0 shell      9 out of     12 in             9.12 secs
    0 shell     10 out of     12 in             9.12 secs
    0 shell     11 out of     12 in             9.12 secs
    0 shell     12 out of     12 in             9.13 secs

          Number of sigma calls:       19
                       o<<<<< (aa):             0.00
                       o<<<<< (bb):             0.01
                       o<<<<< (ab):             0.04
                       o<<<<< (total)           0.05
                       o<<<<< (aa) ff           0.00
                       o<<<<< (aa) gop          0.00
                       o<<<<< (aa) dot          0.00
                       o<<<<< (ab) str          0.00
                       o<<<<< (ab) gath         0.00
                       o<<<<< (ab) dotab        0.00
                       o<<<<< (ab) scat         0.00
                       o<<<<< (ab) sync         0.00
                       o<<<<< Density           0.01
                       o<<<<< Density one       0.00
                       o<<<<< Density two       0.00
                       o<<<<< Density ab        0.00
                       o<<<<< Spin adapt        0.16
                       o<<<<< Symm adapt        0.00

                       o<<<<< (ab) max sync:      0.00
       1.0000    -108.79072114 -3.99D-08 -3.99D-08  5.22D-08 4.3D-01      9.0
    0 shell      1 out of     12 in             9.40 secs
    0 shell      2 out of     12 in             9.40 secs
    0 shell      3 out of     12 in             9.40 secs
    0 shell      4 out of     12 in             9.40 secs
    0 shell      5 out of     12 in             9.40 secs
    0 shell      6 out of     12 in             9.41 secs
    0 shell      7 out of     12 in             9.41 secs
    0 shell      8 out of     12 in             9.41 secs
    0 shell      9 out of     12 in             9.41 secs
    0 shell     10 out of     12 in             9.41 secs
    0 shell     11 out of     12 in             9.42 secs
    0 shell     12 out of     12 in             9.42 secs

          Number of sigma calls:       19
                       o<<<<< (aa):             0.00
                       o<<<<< (bb):             0.01
                       o<<<<< (ab):             0.04
                       o<<<<< (total)           0.05
                       o<<<<< (aa) ff           0.00
                       o<<<<< (aa) gop          0.00
                       o<<<<< (aa) dot          0.00
                       o<<<<< (ab) str          0.00
                       o<<<<< (ab) gath         0.00
                       o<<<<< (ab) dotab        0.00
                       o<<<<< (ab) scat         0.00
                       o<<<<< (ab) sync         0.00
                       o<<<<< Density           0.01
                       o<<<<< Density one       0.00
                       o<<<<< Density two       0.00
                       o<<<<< Density ab        0.00
                       o<<<<< Spin adapt        0.16
                       o<<<<< Symm adapt        0.00

                       o<<<<< (ab) max sync:      0.00
       1.7639    -108.79072116 -1.10D-10 -1.02D-10  5.21D-08 1.2D-03      9.2



          %%%%% MacroIteration   9 %%%%%


          Number of sigma calls:        1
                       o<<<<< (aa):             0.00
                       o<<<<< (bb):             0.00
                       o<<<<< (ab):             0.00
                       o<<<<< (total)           0.00
                       o<<<<< (aa) ff           0.00
                       o<<<<< (aa) gop          0.00
                       o<<<<< (aa) dot          0.00
                       o<<<<< (ab) str          0.00
                       o<<<<< (ab) gath         0.00
                       o<<<<< (ab) dotab        0.00
                       o<<<<< (ab) scat         0.00
                       o<<<<< (ab) sync         0.00
                       o<<<<< Density           0.01
                       o<<<<< Density one       0.00
                       o<<<<< Density two       0.00
                       o<<<<< Density ab        0.00
                       o<<<<< Spin adapt        0.00
                       o<<<<< Symm adapt        0.00

                       o<<<<< (ab) max sync:      0.00

           >>>| Valence CI:            -16.561129353042
           >>>| MCSCF energy:         -108.790721155337
           >>>| Gradient norm:          0.191009833D-03
     --- Warning:   19 Hessian diagonals < 0.05 ---

                              ----- Line search ------

        step       energy         lsg     num-lsg   num-lsh   lsrat    time
      ------- ---------------- --------- --------- --------- ------- --------
       0.0000    -108.79072116 -1.41D-08  0.00D+00  0.00D+00 0.0D+00      9.5
    0 shell      1 out of     12 in             9.98 secs
    0 shell      2 out of     12 in             9.98 secs
    0 shell      3 out of     12 in             9.98 secs
    0 shell      4 out of     12 in             9.99 secs
    0 shell      5 out of     12 in             9.99 secs
    0 shell      6 out of     12 in             9.99 secs
    0 shell      7 out of     12 in             9.99 secs
    0 shell      8 out of     12 in             9.99 secs
    0 shell      9 out of     12 in             9.99 secs
    0 shell     10 out of     12 in            10.00 secs
    0 shell     11 out of     12 in            10.00 secs
    0 shell     12 out of     12 in            10.00 secs

          Number of sigma calls:       17
                       o<<<<< (aa):             0.00
                       o<<<<< (bb):             0.01
                       o<<<<< (ab):             0.04
                       o<<<<< (total)           0.05
                       o<<<<< (aa) ff           0.00
                       o<<<<< (aa) gop          0.00
                       o<<<<< (aa) dot          0.00
                       o<<<<< (ab) str          0.00
                       o<<<<< (ab) gath         0.00
                       o<<<<< (ab) dotab        0.00
                       o<<<<< (ab) scat         0.00
                       o<<<<< (ab) sync         0.00
                       o<<<<< Density           0.01
                       o<<<<< Density one       0.00
                       o<<<<< Density two       0.00
                       o<<<<< Density ab        0.00
                       o<<<<< Spin adapt        0.14
                       o<<<<< Symm adapt        0.00

                       o<<<<< (ab) max sync:      0.00
       1.0000    -108.79072116 -2.29D-09 -2.29D-09  1.18D-08 1.6D-01      9.8
    0 shell      1 out of     12 in            10.25 secs
    0 shell      2 out of     12 in            10.25 secs
    0 shell      3 out of     12 in            10.25 secs
    0 shell      4 out of     12 in            10.25 secs
    0 shell      5 out of     12 in            10.25 secs
    0 shell      6 out of     12 in            10.26 secs
    0 shell      7 out of     12 in            10.26 secs
    0 shell      8 out of     12 in            10.26 secs
    0 shell      9 out of     12 in            10.26 secs
    0 shell     10 out of     12 in            10.26 secs
    0 shell     11 out of     12 in            10.27 secs
    0 shell     12 out of     12 in            10.27 secs

          Number of sigma calls:       14
                       o<<<<< (aa):             0.00
                       o<<<<< (bb):             0.01
                       o<<<<< (ab):             0.03
                       o<<<<< (total)           0.04
                       o<<<<< (aa) ff           0.00
                       o<<<<< (aa) gop          0.00
                       o<<<<< (aa) dot          0.00
                       o<<<<< (ab) str          0.00
                       o<<<<< (ab) gath         0.00
                       o<<<<< (ab) dotab        0.00
                       o<<<<< (ab) scat         0.00
                       o<<<<< (ab) sync         0.00
                       o<<<<< Density           0.01
                       o<<<<< Density one       0.00
                       o<<<<< Density two       0.00
                       o<<<<< Density ab        0.00
                       o<<<<< Spin adapt        0.11
                       o<<<<< Symm adapt        0.00

                       o<<<<< (ab) max sync:      0.00
       1.1947    -108.79072116 -4.30D-13 -1.41D-12  1.18D-08 3.1D-05     10.0



          %%%%% MacroIteration  10 %%%%%


          Number of sigma calls:        1
                       o<<<<< (aa):             0.00
                       o<<<<< (bb):             0.00
                       o<<<<< (ab):             0.00
                       o<<<<< (total)           0.00
                       o<<<<< (aa) ff           0.00
                       o<<<<< (aa) gop          0.00
                       o<<<<< (aa) dot          0.00
                       o<<<<< (ab) str          0.00
                       o<<<<< (ab) gath         0.00
                       o<<<<< (ab) dotab        0.00
                       o<<<<< (ab) scat         0.00
                       o<<<<< (ab) sync         0.00
                       o<<<<< Density           0.01
                       o<<<<< Density one       0.00
                       o<<<<< Density two       0.00
                       o<<<<< Density ab        0.00
                       o<<<<< Spin adapt        0.00
                       o<<<<< Symm adapt        0.00

                       o<<<<< (ab) max sync:      0.00

           >>>| Valence CI:            -16.560940391505
           >>>| MCSCF energy:         -108.790721163742
           >>>| Gradient norm:          0.494943658D-04




     ==============================
            MCSCF Converged
     ==============================



          Canonical Eigenvalues

              1      
    1  -15.6474
    2  -15.6463
    3   -0.9919
    4   -0.9206
    5   -0.3989
    6   -0.3249
    7   -0.3249
    8   -0.2437
    9   -0.2437
   10   -0.1625
   11   -0.0026
   12    0.9072
   13    0.9085
   14    0.9085
   15    1.0211
   16    1.0211
   17    1.0595
   18    1.2592
   19    1.9132
   20    1.9982
   21    1.9982
   22    2.0403
   23    2.0403
   24    2.0517
   25    2.0517
   26    2.1159
   27    2.1159
   28    2.4711
   29    3.7906
   30    3.9133

    0 shell      1 out of     12 in            10.53 secs
    0 shell      2 out of     12 in            10.53 secs
    0 shell      3 out of     12 in            10.53 secs
    0 shell      4 out of     12 in            10.54 secs
    0 shell      5 out of     12 in            10.54 secs
    0 shell      6 out of     12 in            10.54 secs
    0 shell      7 out of     12 in            10.54 secs
    0 shell      8 out of     12 in            10.54 secs
    0 shell      9 out of     12 in            10.54 secs
    0 shell     10 out of     12 in            10.55 secs
    0 shell     11 out of     12 in            10.55 secs
    0 shell     12 out of     12 in            10.55 secs

          Converged CI vector

   Index           Coefficient          Config. Occupation
         1          0.45894513          1  2  3  4  1  2  3  4
        10         -0.10251180          1  2  3  4  1  2  5  6
        21          0.04925359          1  2  3  4  1  3  5  7
        27         -0.02216774          1  2  3  4  1  3  6  7
        23         -0.02216774          1  2  3  4  1  4  5  7
        29         -0.04925359          1  2  3  4  1  4  6  7
        72         -0.28207003          1  2  3  5  1  2  3  5
        76          0.12535453          1  2  3  5  1  2  3  6
        73          0.12535453          1  2  3  5  1  2  4  5
        77          0.05979473          1  2  3  5  1  2  4  6
        88         -0.07612141          1  2  3  5  1  3  4  7
       102          0.03934460          1  2  3  5  1  5  6  7
       352          0.12535453          1  2  3  6  1  2  3  5
       356         -0.05996876          1  2  3  6  1  2  3  6
       353          0.16230654          1  2  3  6  1  2  4  5
       357         -0.12535453          1  2  3  6  1  2  4  6
       368          0.03426024          1  2  3  6  1  3  4  7
      1054         -0.12537500          1  2  3  7  1  3  4  5
      1058          0.05642798          1  2  3  7  1  3  4  6
       142          0.12535453          1  2  4  5  1  2  3  5
       146          0.16230654          1  2  4  5  1  2  3  6
       143         -0.05996876          1  2  4  5  1  2  4  5
       147         -0.12535453          1  2  4  5  1  2  4  6
       158          0.03426024          1  2  4  5  1  3  4  7
       422          0.05979473          1  2  4  6  1  2  3  5
       426         -0.12535453          1  2  4  6  1  2  3  6
       423         -0.12535453          1  2  4  6  1  2  4  5
       427         -0.28207003          1  2  4  6  1  2  4  6
       438          0.07612141          1  2  4  6  1  3  4  7
       452         -0.03934460          1  2  4  6  1  5  6  7
      1124          0.05642798          1  2  4  7  1  3  4  5
      1128          0.12537500          1  2  4  7  1  3  4  6
       631         -0.10251180          1  2  5  6  1  2  3  4
       640          0.26253180          1  2  5  6  1  2  5  6
       651         -0.06208484          1  2  5  6  1  3  5  7
       657          0.02794275          1  2  5  6  1  3  6  7
       653          0.02794275          1  2  5  6  1  4  5  7
       659          0.06208484          1  2  5  6  1  4  6  7
      1341         -0.10142943          1  2  5  7  1  3  5  6
      1343          0.04565071          1  2  5  7  1  4  5  6
      1761          0.04565071          1  2  6  7  1  3  5  6
      1763          0.10142943          1  2  6  7  1  4  5  6
       226         -0.12537500          1  3  4  5  1  2  3  7
       227          0.05642798          1  3  4  5  1  2  4  7
       506          0.05642798          1  3  4  6  1  2  3  7
       507          0.12537500          1  3  4  6  1  2  4  7
      1192         -0.07612141          1  3  4  7  1  2  3  5
      1196          0.03426024          1  3  4  7  1  2  3  6
      1193          0.03426024          1  3  4  7  1  2  4  5
      1197          0.07612141          1  3  4  7  1  2  4  6
      1208         -0.19539921          1  3  4  7  1  3  4  7
      1222          0.04999920          1  3  4  7  1  5  6  7
       720         -0.10142943          1  3  5  6  1  2  5  7
       726          0.04565071          1  3  5  6  1  2  6  7
      1401          0.04925359          1  3  5  7  1  2  3  4
      1410         -0.06208484          1  3  5  7  1  2  5  6
      1421          0.13868286          1  3  5  7  1  3  5  7
      1427         -0.06169136          1  3  5  7  1  3  6  7
      1423         -0.06169136          1  3  5  7  1  4  5  7
      1429         -0.02965231          1  3  5  7  1  4  6  7
      1821         -0.02216774          1  3  6  7  1  2  3  4
      1830          0.02794275          1  3  6  7  1  2  5  6
      1841         -0.06169136          1  3  6  7  1  3  5  7
      1847          0.02937904          1  3  6  7  1  3  6  7
      1843         -0.07965151          1  3  6  7  1  4  5  7
      1849          0.06169136          1  3  6  7  1  4  6  7
       860          0.04565071          1  4  5  6  1  2  5  7
       866          0.10142943          1  4  5  6  1  2  6  7
      1541         -0.02216774          1  4  5  7  1  2  3  4
      1550          0.02794275          1  4  5  7  1  2  5  6
      1561         -0.06169136          1  4  5  7  1  3  5  7
      1567         -0.07965151          1  4  5  7  1  3  6  7
      1563          0.02937904          1  4  5  7  1  4  5  7
      1569          0.06169136          1  4  5  7  1  4  6  7
      1961         -0.04925359          1  4  6  7  1  2  3  4
      1970          0.06208484          1  4  6  7  1  2  5  6
      1981         -0.02965231          1  4  6  7  1  3  5  7
      1987          0.06169136          1  4  6  7  1  3  6  7
      1983          0.06169136          1  4  6  7  1  4  5  7
      1989          0.13868286          1  4  6  7  1  4  6  7
      2172          0.03934460          1  5  6  7  1  2  3  5
      2177         -0.03934460          1  5  6  7  1  2  4  6
      2188          0.04999920          1  5  6  7  1  3  4  7
      2202         -0.15008224          1  5  6  7  1  5  6  7

          Number of sigma calls:        1
                       o<<<<< (aa):             0.00
                       o<<<<< (bb):             0.00
                       o<<<<< (ab):             0.00
                       o<<<<< (total)           0.00
                       o<<<<< (aa) ff           0.00
                       o<<<<< (aa) gop          0.00
                       o<<<<< (aa) dot          0.00
                       o<<<<< (ab) str          0.00
                       o<<<<< (ab) gath         0.00
                       o<<<<< (ab) dotab        0.00
                       o<<<<< (ab) scat         0.00
                       o<<<<< (ab) sync         0.00
                       o<<<<< Density           0.01
                       o<<<<< Density one       0.00
                       o<<<<< Density two       0.00
                       o<<<<< Density ab        0.00
                       o<<<<< Spin adapt        0.00
                       o<<<<< Symm adapt        0.00

                       o<<<<< (ab) max sync:      0.00



          Natural orbital occupation numbers

              1      
    1    2.0000
    2    2.0000
    3    2.0000
    4    1.9932
    5    1.5046
    6    1.1781
    7    1.1781
    8    0.8223
    9    0.8223
   10    0.4969
   11    0.0047

    0 shell      1 out of     12 in            10.57 secs
    0 shell      2 out of     12 in            10.57 secs
    0 shell      3 out of     12 in            10.57 secs
    0 shell      4 out of     12 in            10.57 secs
    0 shell      5 out of     12 in            10.58 secs
    0 shell      6 out of     12 in            10.58 secs
    0 shell      7 out of     12 in            10.58 secs
    0 shell      8 out of     12 in            10.58 secs
    0 shell      9 out of     12 in            10.58 secs
    0 shell     10 out of     12 in            10.59 secs
    0 shell     11 out of     12 in            10.59 secs
    0 shell     12 out of     12 in            10.59 secs

          Number of sigma calls:       33
                       o<<<<< (aa):             0.01
                       o<<<<< (bb):             0.01
                       o<<<<< (ab):             0.06
                       o<<<<< (total)           0.08
                       o<<<<< (aa) ff           0.00
                       o<<<<< (aa) gop          0.00
                       o<<<<< (aa) dot          0.00
                       o<<<<< (ab) str          0.00
                       o<<<<< (ab) gath         0.00
                       o<<<<< (ab) dotab        0.00
                       o<<<<< (ab) scat         0.00
                       o<<<<< (ab) sync         0.00
                       o<<<<< Density           0.01
                       o<<<<< Density one       0.00
                       o<<<<< Density two       0.00
                       o<<<<< Density ab        0.00
                       o<<<<< Spin adapt        0.14
                       o<<<<< Symm adapt        0.00

                       o<<<<< (ab) max sync:      0.00


       Final MCSCF results 
       ------------------- 

       Total MCSCF energy =   -108.790721164874
            Gradient norm =      4.9D-05

    CPU time for solution =     10.4s
   Wall time for solution =     10.7s



                        Analysis of MCSCF natural orbitals
                        ----------------------------------

 Vector    1  Occ=2.000000D+00  E=-1.564737D+01  Symmetry=a
              MO Center= -7.2D-19,  2.6D-19, -2.2D-07, r^2= 1.2D+00
   Bfn.  Coefficient  Atom+Function         Bfn.  Coefficient  Atom+Function  
  ----- ------------  ---------------      ----- ------------  ---------------
     1      0.707551  1 N  s                 16      0.707551  2 N  s          

 Vector    2  Occ=2.000000D+00  E=-1.564631D+01  Symmetry=a
              MO Center= -5.9D-20, -1.8D-17,  2.2D-07, r^2= 1.2D+00
   Bfn.  Coefficient  Atom+Function         Bfn.  Coefficient  Atom+Function  
  ----- ------------  ---------------      ----- ------------  ---------------
     1      0.707433  1 N  s                 16     -0.707433  2 N  s          

 Vector    3  Occ=2.000000D+00  E=-9.919357D-01  Symmetry=a
              MO Center= -2.6D-15,  1.1D-15, -6.4D-08, r^2= 1.8D+00
   Bfn.  Coefficient  Atom+Function         Bfn.  Coefficient  Atom+Function  
  ----- ------------  ---------------      ----- ------------  ---------------
     3      0.401942  1 N  s                 18      0.401942  2 N  s          
     2      0.341190  1 N  s                 17      0.341190  2 N  s          

 Vector    4  Occ=1.993176D+00  E=-9.206365D-01  Symmetry=a
              MO Center= -2.5D-16, -4.6D-15,  6.4D-08, r^2= 1.9D+00
   Bfn.  Coefficient  Atom+Function         Bfn.  Coefficient  Atom+Function  
  ----- ------------  ---------------      ----- ------------  ---------------
     3      0.421777  1 N  s                 18     -0.421777  2 N  s          
     2      0.368507  1 N  s                 17     -0.368507  2 N  s          

 Vector    5  Occ=1.504559D+00  E=-3.988542D-01  Symmetry=a
              MO Center=  1.1D-16, -7.4D-17, -4.1D-10, r^2= 1.8D+00
   Bfn.  Coefficient  Atom+Function         Bfn.  Coefficient  Atom+Function  
  ----- ------------  ---------------      ----- ------------  ---------------
     6      0.441082  1 N  pz                21     -0.441082  2 N  pz         
     9      0.307314  1 N  pz                24     -0.307314  2 N  pz         

 Vector    6  Occ=1.178070D+00  E=-3.248744D-01  Symmetry=a
              MO Center= -1.4D-16, -1.8D-16, -1.3D-10, r^2= 1.9D+00
   Bfn.  Coefficient  Atom+Function         Bfn.  Coefficient  Atom+Function  
  ----- ------------  ---------------      ----- ------------  ---------------
     5      0.349254  1 N  py                20      0.349254  2 N  py         
     4      0.307574  1 N  px                19      0.307574  2 N  px         
     8      0.241050  1 N  py                23      0.241050  2 N  py         
     7      0.212283  1 N  px                22      0.212283  2 N  px         

 Vector    7  Occ=1.178070D+00  E=-3.248744D-01  Symmetry=a
              MO Center=  2.1D-15, -1.8D-15, -1.3D-10, r^2= 1.9D+00
   Bfn.  Coefficient  Atom+Function         Bfn.  Coefficient  Atom+Function  
  ----- ------------  ---------------      ----- ------------  ---------------
     4      0.349254  1 N  px                19      0.349254  2 N  px         
     5     -0.307574  1 N  py                20     -0.307574  2 N  py         
     7      0.241050  1 N  px                22      0.241050  2 N  px         
     8     -0.212283  1 N  py                23     -0.212283  2 N  py         

 Vector    8  Occ=8.222654D-01  E=-2.436578D-01  Symmetry=a
              MO Center= -2.6D-15,  2.1D-15,  1.7D-10, r^2= 1.9D+00
   Bfn.  Coefficient  Atom+Function         Bfn.  Coefficient  Atom+Function  
  ----- ------------  ---------------      ----- ------------  ---------------
     4      0.404057  1 N  px                19     -0.404057  2 N  px         
     5     -0.294227  1 N  py                20      0.294227  2 N  py         
     7      0.262730  1 N  px                22     -0.262730  2 N  px         
     8     -0.191315  1 N  py                23      0.191315  2 N  py         

 Vector    9  Occ=8.222654D-01  E=-2.436578D-01  Symmetry=a
              MO Center=  2.3D-15,  3.0D-15,  1.7D-10, r^2= 1.9D+00
   Bfn.  Coefficient  Atom+Function         Bfn.  Coefficient  Atom+Function  
  ----- ------------  ---------------      ----- ------------  ---------------
     5      0.404057  1 N  py                20     -0.404057  2 N  py         
     4      0.294227  1 N  px                19     -0.294227  2 N  px         
     8      0.262730  1 N  py                23     -0.262730  2 N  py         
     7      0.191315  1 N  px                22     -0.191315  2 N  px         

 Vector   10  Occ=4.969368D-01  E=-1.625217D-01  Symmetry=a
              MO Center= -1.2D-16, -7.4D-17,  5.2D-10, r^2= 1.8D+00
   Bfn.  Coefficient  Atom+Function         Bfn.  Coefficient  Atom+Function  
  ----- ------------  ---------------      ----- ------------  ---------------
     6      0.540547  1 N  pz                21      0.540547  2 N  pz         
     9      0.355921  1 N  pz                24      0.355921  2 N  pz         

 Vector   11  Occ=4.658116D-03  E=-2.636835D-03  Symmetry=a
              MO Center= -2.0D-15,  9.4D-16,  5.1D-08, r^2= 2.1D+00
   Bfn.  Coefficient  Atom+Function         Bfn.  Coefficient  Atom+Function  
  ----- ------------  ---------------      ----- ------------  ---------------
     2      0.895129  1 N  s                 17      0.895129  2 N  s          
     3     -0.875668  1 N  s                 18     -0.875668  2 N  s          
     1      0.359318  1 N  s                 16      0.359318  2 N  s          
    15     -0.291624  1 N  dzz               30     -0.291624  2 N  dzz        
    10      0.201992  1 N  dxx               13      0.201992  1 N  dyy        

 Vector   12  Occ=0.000000D+00  E= 9.072399D-01  Symmetry=a
              MO Center= -2.9D-15, -2.7D-14, -3.4D-08, r^2= 4.3D+00
   Bfn.  Coefficient  Atom+Function         Bfn.  Coefficient  Atom+Function  
  ----- ------------  ---------------      ----- ------------  ---------------
     3      0.807819  1 N  s                 18     -0.807819  2 N  s          
     9     -0.649804  1 N  pz                24     -0.649804  2 N  pz         
     2     -0.600785  1 N  s                 17      0.600785  2 N  s          
     6      0.470735  1 N  pz                21      0.470735  2 N  pz         
     1     -0.268478  1 N  s                 16      0.268478  2 N  s          

 Vector   13  Occ=0.000000D+00  E= 9.085428D-01  Symmetry=a
              MO Center=  2.6D-15,  1.1D-15, -6.8D-10, r^2= 2.5D+00
   Bfn.  Coefficient  Atom+Function         Bfn.  Coefficient  Atom+Function  
  ----- ------------  ---------------      ----- ------------  ---------------
     7     -0.642540  1 N  px                22     -0.642540  2 N  px         
     4      0.627794  1 N  px                19      0.627794  2 N  px         
     8     -0.258241  1 N  py                23     -0.258241  2 N  py         
     5      0.252315  1 N  py                20      0.252315  2 N  py         

 Vector   14  Occ=0.000000D+00  E= 9.085428D-01  Symmetry=a
              MO Center=  3.8D-16, -8.8D-16, -6.8D-10, r^2= 2.5D+00
   Bfn.  Coefficient  Atom+Function         Bfn.  Coefficient  Atom+Function  
  ----- ------------  ---------------      ----- ------------  ---------------
     8     -0.642540  1 N  py                23     -0.642540  2 N  py         
     5      0.627794  1 N  py                20      0.627794  2 N  py         
     7      0.258241  1 N  px                22      0.258241  2 N  px         
     4     -0.252315  1 N  px                19     -0.252315  2 N  px         

 Vector   15  Occ=0.000000D+00  E= 1.021068D+00  Symmetry=a
              MO Center=  7.1D-15,  3.8D-15,  6.4D-10, r^2= 3.0D+00
   Bfn.  Coefficient  Atom+Function         Bfn.  Coefficient  Atom+Function  
  ----- ------------  ---------------      ----- ------------  ---------------
     7      0.749085  1 N  px                22     -0.749085  2 N  px         
     4     -0.593300  1 N  px                19      0.593300  2 N  px         
     8      0.399482  1 N  py                23     -0.399482  2 N  py         
     5     -0.316403  1 N  py                20      0.316403  2 N  py         

 Vector   16  Occ=0.000000D+00  E= 1.021068D+00  Symmetry=a
              MO Center= -6.2D-15,  1.2D-14,  6.4D-10, r^2= 3.0D+00
   Bfn.  Coefficient  Atom+Function         Bfn.  Coefficient  Atom+Function  
  ----- ------------  ---------------      ----- ------------  ---------------
     8      0.749085  1 N  py                23     -0.749085  2 N  py         
     5     -0.593300  1 N  py                20      0.593300  2 N  py         
     7     -0.399482  1 N  px                22      0.399482  2 N  px         
     4      0.316403  1 N  px                19     -0.316403  2 N  px         

 Vector   17  Occ=0.000000D+00  E= 1.059493D+00  Symmetry=a
              MO Center= -4.0D-16, -3.9D-16,  7.9D-10, r^2= 3.0D+00
   Bfn.  Coefficient  Atom+Function         Bfn.  Coefficient  Atom+Function  
  ----- ------------  ---------------      ----- ------------  ---------------
     6      0.711193  1 N  pz                21     -0.711193  2 N  pz         
     9     -0.667462  1 N  pz                24      0.667462  2 N  pz         
     3      0.301174  1 N  s                 18      0.301174  2 N  s          
     2     -0.155055  1 N  s                 17     -0.155055  2 N  s          

 Vector   18  Occ=0.000000D+00  E= 1.259211D+00  Symmetry=a
              MO Center=  2.4D-15,  1.2D-14, -7.2D-10, r^2= 2.3D+00
   Bfn.  Coefficient  Atom+Function         Bfn.  Coefficient  Atom+Function  
  ----- ------------  ---------------      ----- ------------  ---------------
     3      1.547884  1 N  s                 18     -1.547884  2 N  s          
     9      1.001436  1 N  pz                24      1.001436  2 N  pz         
     2     -0.796576  1 N  s                 17      0.796576  2 N  s          
     6     -0.438120  1 N  pz                21     -0.438120  2 N  pz         
     1     -0.407802  1 N  s                 16      0.407802  2 N  s          

 Vector   19  Occ=0.000000D+00  E= 1.913227D+00  Symmetry=a
              MO Center= -3.1D-17,  5.1D-16,  6.9D-10, r^2= 2.0D+00
   Bfn.  Coefficient  Atom+Function         Bfn.  Coefficient  Atom+Function  
  ----- ------------  ---------------      ----- ------------  ---------------
    15      0.681890  1 N  dzz               30      0.681890  2 N  dzz        
     3     -0.601672  1 N  s                 18     -0.601672  2 N  s          
     2      0.487595  1 N  s                 17      0.487595  2 N  s          
    10     -0.237807  1 N  dxx               13     -0.237807  1 N  dyy        
    25     -0.237807  2 N  dxx               28     -0.237807  2 N  dyy        

 Vector   20  Occ=0.000000D+00  E= 1.998163D+00  Symmetry=a
              MO Center=  1.0D-16, -4.3D-16, -1.2D-09, r^2= 1.9D+00
   Bfn.  Coefficient  Atom+Function         Bfn.  Coefficient  Atom+Function  
  ----- ------------  ---------------      ----- ------------  ---------------
    14      1.205841  1 N  dyz               29     -1.205841  2 N  dyz        
    12     -0.173270  1 N  dxz               27      0.173270  2 N  dxz        

 Vector   21  Occ=0.000000D+00  E= 1.998163D+00  Symmetry=a
              MO Center= -3.9D-16,  1.1D-16, -1.2D-09, r^2= 1.9D+00
   Bfn.  Coefficient  Atom+Function         Bfn.  Coefficient  Atom+Function  
  ----- ------------  ---------------      ----- ------------  ---------------
    12      1.205841  1 N  dxz               27     -1.205841  2 N  dxz        
    14      0.173270  1 N  dyz               29     -0.173270  2 N  dyz        


 Wrote Lagrangian and 1- and 2-particle density matrices to ./tce_n2_2re.mcpdm


     Multipole analysis of the density
     ---------------------------------

     L   x y z        total        nuclear
     -   - - -        -----        -------
     0   0 0 0     -0.000000     14.000000

     1   1 0 0      0.000000      0.000000
     1   0 1 0     -0.000000      0.000000
     1   0 0 1      0.000000      0.000000

     2   2 0 0     -7.927642      0.000000
     2   1 1 0     -0.000000      0.000000
     2   1 0 1     -0.000000      0.000000
     2   0 2 0     -7.927642      0.000000
     2   0 1 1      0.000000      0.000000
     2   0 0 2     -8.295486     59.872736


  Mulliken analysis of the total density
  --------------------------------------

    Atom       Charge   Shell Charges
 -----------   ------   -------------------------------------------------------
    1 N    7     7.00   2.00  0.92  1.08  1.86  1.15 -0.00
    2 N    7     7.00   2.00  0.92  1.08  1.86  1.15 -0.00

    Mulliken analysis of the active space density
    ---------------------------------------------

    Atom       Charge   Shell Charges
 -----------   ------   -------------------------------------------------------
[...]
     2     -0.875208  1 N  s                 17     -0.875208  2 N  s          
     1     -0.395068  1 N  s                 16     -0.395068  2 N  s          
    10     -0.205396  1 N  dxx               13     -0.205396  1 N  dyy        
    25     -0.205396  2 N  dxx               28     -0.205396  2 N  dyy        

 Vector   12  Occ=0.000000D+00  E= 9.137208D-01
              MO Center=  4.1D-16, -2.9D-17, -1.1D-13, r^2= 4.0D+00
   Bfn.  Coefficient  Atom+Function         Bfn.  Coefficient  Atom+Function  
  ----- ------------  ---------------      ----- ------------  ---------------
     3      0.835651  1 N  s                 18     -0.835651  2 N  s          
     2     -0.604804  1 N  s                 17      0.604804  2 N  s          
     9     -0.594107  1 N  pz                24     -0.594107  2 N  pz         
     6      0.518382  1 N  pz                21      0.518382  2 N  pz         
     1     -0.273078  1 N  s                 16      0.273078  2 N  s          

 Vector   13  Occ=0.000000D+00  E= 9.153570D-01
              MO Center= -7.3D-16,  1.1D-16,  2.8D-14, r^2= 2.4D+00
   Bfn.  Coefficient  Atom+Function         Bfn.  Coefficient  Atom+Function  
  ----- ------------  ---------------      ----- ------------  ---------------
     4      0.708977  1 N  px                19      0.708977  2 N  px         
     7     -0.656372  1 N  px                22     -0.656372  2 N  px         

 Vector   14  Occ=0.000000D+00  E= 9.153570D-01
              MO Center=  8.0D-16,  6.5D-15, -5.2D-15, r^2= 2.4D+00
   Bfn.  Coefficient  Atom+Function         Bfn.  Coefficient  Atom+Function  
  ----- ------------  ---------------      ----- ------------  ---------------
     5      0.708977  1 N  py                20      0.708977  2 N  py         
     8     -0.656372  1 N  py                23     -0.656372  2 N  py         

 Vector   15  Occ=0.000000D+00  E= 1.028921D+00
              MO Center= -2.8D-16,  5.8D-17, -2.8D-14, r^2= 2.8D+00
   Bfn.  Coefficient  Atom+Function         Bfn.  Coefficient  Atom+Function  
  ----- ------------  ---------------      ----- ------------  ---------------
     7      0.804472  1 N  px                22     -0.804472  2 N  px         
     4     -0.707031  1 N  px                19      0.707031  2 N  px         

 Vector   16  Occ=0.000000D+00  E= 1.028921D+00
              MO Center= -1.5D-19, -4.1D-17,  4.3D-15, r^2= 2.8D+00
   Bfn.  Coefficient  Atom+Function         Bfn.  Coefficient  Atom+Function  
  ----- ------------  ---------------      ----- ------------  ---------------
     8      0.804472  1 N  py                23     -0.804472  2 N  py         
     5     -0.707031  1 N  py                20      0.707031  2 N  py         

 Vector   17  Occ=0.000000D+00  E= 1.060392D+00
              MO Center= -7.1D-17, -3.3D-16, -5.8D-15, r^2= 2.2D+00
   Bfn.  Coefficient  Atom+Function         Bfn.  Coefficient  Atom+Function  
  ----- ------------  ---------------      ----- ------------  ---------------
     6      0.738434  1 N  pz                21     -0.738434  2 N  pz         
     9     -0.629228  1 N  pz                24      0.629228  2 N  pz         


 center of mass
 --------------
 x =   0.00000000 y =   0.00000000 z =   0.00000000

 moments of inertia (a.u.)
 ------------------
         119.771730471360           0.000000000000           0.000000000000
           0.000000000000         119.771730471360           0.000000000000
           0.000000000000           0.000000000000           0.000000000000

  Mulliken analysis of the total density
  --------------------------------------

    Atom       Charge   Shell Charges
 -----------   ------   -------------------------------------------------------
    1 N    7     7.00   2.00  0.92  1.07  1.50  1.51 -0.00
    2 N    7     7.00   2.00  0.92  1.07  1.50  1.51 -0.00

       Multipole analysis of the density wrt the origin
       ------------------------------------------------

     L   x y z        total         open         nuclear
     -   - - -        -----         ----         -------
     0   0 0 0     -0.000000      0.000000     14.000000

     1   1 0 0     -0.000000      0.000000      0.000000
     1   0 1 0     -0.000000      0.000000      0.000000
     1   0 0 1     -0.000000      0.000000      0.000000

     2   2 0 0     -9.009777      0.000000      0.000000
     2   1 1 0      0.000000      0.000000      0.000000
     2   1 0 1     -0.000000      0.000000      0.000000
     2   0 2 0     -9.009777      0.000000      0.000000
     2   0 1 1     -0.000000      0.000000      0.000000
     2   0 0 2     -8.239625      0.000000     59.872736

                   NWChem Extensible Many-Electron Theory Module
                   ---------------------------------------------

              ======================================================
                   This portion of the program was automatically
                  generated by a Tensor Contraction Engine (TCE).
                  The development of this portion of the program
                 and TCE was supported by US Department of Energy,
                Office of Science, Office of Basic Energy Science.
                      TCE is a product of Battelle and PNNL.
              Please cite: S.Hirata, J.Phys.Chem.A 107, 9887 (2003).
              ======================================================

            General Information
            -------------------
      Number of processors :     1
         Wavefunction type : Restricted Hartree-Fock
          No. of electrons :    14
           Alpha electrons :     7
            Beta electrons :     7
           No. of orbitals :    60
            Alpha orbitals :    30
             Beta orbitals :    30
        Alpha frozen cores :     0
         Beta frozen cores :     0
     Alpha frozen virtuals :     0
      Beta frozen virtuals :     0
         Spin multiplicity : singlet 
    Number of AO functions :    30
       Number of AO shells :    12
        Use of symmetry is : off
      Symmetry adaption is : off
         Schwarz screening : 0.10D-09

          Correlation Information
          -----------------------
          Calculation type : Coupled-cluster singles & doubles                           
   Perturbative correction : none                                                        
            Max iterations :      100
        Residual threshold : 0.10D-06
     T(0) DIIS level shift : 0.20D+00
     L(0) DIIS level shift : 0.00D+00
     T(1) DIIS level shift : 0.00D+00
     L(1) DIIS level shift : 0.00D+00
     T(R) DIIS level shift : 0.00D+00
     T(I) DIIS level shift : 0.00D+00
   CC-T/L Amplitude update :  5-th order DIIS
                I/O scheme : Global Array Library
        L-threshold :  0.10D-06
        EOM-threshold :  0.10D-06
 no EOMCCSD initial starts read in
 TCE RESTART OPTIONS
 READ_INT:   F
 WRITE_INT:  F
 READ_TA:    F
 WRITE_TA:   F
 READ_XA:    F
 WRITE_XA:   F
 READ_IN3:   F
 WRITE_IN3:  F
 SLICE:      F
 D4D5:       F
 quantumc:   F
 qrotation:  F
 pwtce:      F
 qducc:      F
 nacto:                         0
 nrotv:                         0
 nrot:                          0

            Memory Information
            ------------------
          Available GA space size is      26213500 doubles
          Available MA space size is      26212676 doubles

 Maximum block size        32 doubles

 tile_dim =     23

 Block   Spin    Irrep     Size     Offset   Alpha
 -------------------------------------------------
   1    alpha     a      7 doubles       0       1
   2    beta      a      7 doubles       7       1
   3    alpha     a     23 doubles      14       3
   4    beta      a     23 doubles      37       3

 Global array virtual files algorithm will be used

 Parallel file system coherency ......... OK

 Fock matrix recomputed
 1-e file size   =              900
 1-e file name   = ./tce_n2_2re.f1
 Cpu & wall time / sec            0.0            0.0

 tce_ao2e: fast2e=1
 half-transformed integrals in memory

 2-e (intermediate) file size =         2140200
 2-e (intermediate) file name = ./tce_n2_2re.v2i
 Cpu & wall time / sec            0.2            0.2

 tce_mo2e: fast2e=1
 2-e integrals stored in memory

 2-e file size   =          1356121
 2-e file name   = ./tce_n2_2re.v2
 Cpu & wall time / sec            0.0            0.0
 T1-number-of-tasks                    1

 t1 file size   =              161
 t1 file name   = ./tce_n2_2re.t1
 t1 file handle =       -999
 T2-number-of-boxes                    2

 t2 file size   =            51842
 t2 file name   = ./tce_n2_2re.t2
 t2 file handle =       -996
CCSD iterations
 ---------------------------------------------------------
 Iter          Residuum       Correlation     Cpu    Wall 
 ---------------------------------------------------------
NEW TASK SCHEDULING
CCSD_T1_NTS --- OK
CCSD_T2_NTS --- OK
    1   5.7501827291751  -2.6676345519077     0.0     0.0
    2  10.4788388275837   3.8996505664158     0.0     0.0
    3  51.1261797954120  -4.9480546490775     0.0     0.0
    41684.3032899128543  21.0531329622443     0.0     0.0
    5******************-726.4968993696984     0.0     0.0
 MICROCYCLE DIIS UPDATE:                    5                    5
    6   1.3321657894580  -0.2387722450107     0.0     0.0
    7   0.7303544320347  -0.6012605625979     0.0     0.0
    8   0.2097084385983  -0.5594975159289     0.0     0.0
    9   0.1614017896797  -0.6639424197867     0.0     0.0
   10   0.2738660560368  -0.5105844485710     0.0     0.0
 MICROCYCLE DIIS UPDATE:                   10                    5
   11   0.0528795458738  -0.6119275936731     0.0     0.0
   12   0.0529910022424  -0.6170729926525     0.0     0.0
   13   0.0384867423703  -0.6435289276720     0.0     0.0
   14   0.0654713217491  -0.6248956308466     0.0     0.0
   15   0.0667201684059  -0.6825592020409     0.0     0.0
 MICROCYCLE DIIS UPDATE:                   15                    5
   16   0.0214450243611  -0.6936309291936     0.0     0.0
   17   0.0283555912932  -0.7107592286499     0.0     0.0
   18   0.0481804788449  -0.6807536134112     0.0     0.0
   19   0.0749857331123  -0.7321186830509     0.0     0.0
   20   0.1211529208790  -0.6507541134127     0.0     0.0
 MICROCYCLE DIIS UPDATE:                   20                    5
   21   0.0019297940022  -0.7015080356900     0.0     0.0
   22   0.0022857167008  -0.7010737069039     0.0     0.0
   23   0.0021021735030  -0.7029645930111     0.0     0.0
   24   0.0042063445376  -0.7006958575166     0.0     0.0
   25   0.0057524315717  -0.7049987833855     0.0     0.0
 MICROCYCLE DIIS UPDATE:                   25                    5
   26   0.0003838710024  -0.7030342470257     0.0     0.0
   27   0.0003214780737  -0.7030465039225     0.0     0.0
   28   0.0001997555188  -0.7032304547275     0.0     0.0
   29   0.0003773126599  -0.7030904605593     0.0     0.0
   30   0.0004038127564  -0.7034345396044     0.0     0.0
 MICROCYCLE DIIS UPDATE:                   30                    5
   31   0.0000306348503  -0.7033999077897     0.0     0.0
   32   0.0000209329747  -0.7034003187062     0.0     0.0
   33   0.0000120486789  -0.7034115328531     0.0     0.0
   34   0.0000212566882  -0.7034041418409     0.0     0.0
   35   0.0000213688621  -0.7034230686629     0.0     0.0
 MICROCYCLE DIIS UPDATE:                   35                    5
   36   0.0000050415895  -0.7034187840418     0.0     0.0
   37   0.0000049076135  -0.7034186023435     0.0     0.0
   38   0.0000041130119  -0.7034221509803     0.0     0.0
   39   0.0000083553336  -0.7034180268137     0.0     0.0
   40   0.0000110613669  -0.7034264274262     0.0     0.0
 MICROCYCLE DIIS UPDATE:                   40                    5
   41   0.0000005400426  -0.7034233529785     0.0     0.0
   42   0.0000003903027  -0.7034233880581     0.0     0.0
   43   0.0000002213419  -0.7034235856761     0.0     0.0
   44   0.0000003826573  -0.7034234637539     0.0     0.0
   45   0.0000003776263  -0.7034238013525     0.0     0.0
 MICROCYCLE DIIS UPDATE:                   45                    5
   46   0.0000000805220  -0.7034237530096     0.0     0.0
 -----------------------------------------------------------------
 Iterations converged
 CCSD correlation energy / hartree =        -0.703423753009601
 CCSD total energy / hartree       =      -108.930338274673730

 Singles contributions

 Doubles contributions
     8a   (alpha)     9a   (alpha) ---     6a   (alpha)     7a   (alpha)        0.1189998665
     8a   (alpha)     9a   (alpha) ---     7a   (alpha)     6a   (alpha)       -0.1189998665
     9a   (alpha)     8a   (alpha) ---     6a   (alpha)     7a   (alpha)       -0.1189998665
     9a   (alpha)     8a   (alpha) ---     7a   (alpha)     6a   (alpha)        0.1189998665
     8a   (alpha)     8a   (beta ) ---     6a   (alpha)     6a   (beta )       -0.5787353759
     8a   (alpha)     8a   (beta ) ---     6a   (alpha)     7a   (beta )       -0.1430746740
     8a   (alpha)     8a   (beta ) ---     7a   (alpha)     6a   (beta )       -0.1430746740
     8a   (alpha)     9a   (beta ) ---     6a   (alpha)     6a   (beta )        0.1430746740
     8a   (alpha)     9a   (beta ) ---     6a   (alpha)     7a   (beta )       -0.1858014294
     8a   (alpha)     9a   (beta ) ---     7a   (alpha)     6a   (beta )       -0.3048012959
     8a   (alpha)     9a   (beta ) ---     7a   (alpha)     7a   (beta )       -0.1430746740
     8a   (alpha)    10a   (beta ) ---     5a   (alpha)     6a   (beta )       -0.2301632868
     8a   (alpha)    10a   (beta ) ---     6a   (alpha)     5a   (beta )       -0.1554611681
     9a   (alpha)     8a   (beta ) ---     6a   (alpha)     6a   (beta )        0.1430746740
     9a   (alpha)     8a   (beta ) ---     6a   (alpha)     7a   (beta )       -0.3048012959
     9a   (alpha)     8a   (beta ) ---     7a   (alpha)     6a   (beta )       -0.1858014294
     9a   (alpha)     8a   (beta ) ---     7a   (alpha)     7a   (beta )       -0.1430746740
     9a   (alpha)     9a   (beta ) ---     6a   (alpha)     7a   (beta )        0.1430746740
     9a   (alpha)     9a   (beta ) ---     7a   (alpha)     6a   (beta )        0.1430746740
     9a   (alpha)     9a   (beta ) ---     7a   (alpha)     7a   (beta )       -0.5787353759
     9a   (alpha)    10a   (beta ) ---     5a   (alpha)     7a   (beta )       -0.2301632868
     9a   (alpha)    10a   (beta ) ---     7a   (alpha)     5a   (beta )       -0.1554611681
    10a   (alpha)     8a   (beta ) ---     5a   (alpha)     6a   (beta )       -0.1554611681
    10a   (alpha)     8a   (beta ) ---     6a   (alpha)     5a   (beta )       -0.2301632868
    10a   (alpha)     9a   (beta ) ---     5a   (alpha)     7a   (beta )       -0.1554611681
    10a   (alpha)     9a   (beta ) ---     7a   (alpha)     5a   (beta )       -0.2301632868
    10a   (alpha)    10a   (beta ) ---     5a   (alpha)     5a   (beta )       -0.3611460795

 Task  times  cpu:        1.1s     wall:        1.3s


                                NWChem Input Module
                                -------------------


 Summary of allocated global arrays
-----------------------------------
  No active global arrays



                         GA Statistics for process    0
                         ------------------------------

       create   destroy   get      put      acc     scatter   gather  read&inc
calls: 8667     8667     2.13e+05 6.21e+04 7.44e+05 2696        0     4.80e+04 
number of processes/call -4.16e+13 -2.17e+13 -8.87e+12 0.00e+00 0.00e+00
bytes total:             2.43e+09 2.36e+08 7.39e+08 1.44e+07 0.00e+00 3.84e+05
bytes remote:            0.00e+00 0.00e+00 0.00e+00 0.00e+00 0.00e+00 0.00e+00
Max memory consumed for GA by this process: 27984976 bytes

MA_summarize_allocated_blocks: starting scan ...
MA_summarize_allocated_blocks: scan completed: 0 heap blocks, 0 stack blocks
MA usage statistics:

	allocation statistics:
					      heap	     stack
					      ----	     -----
	current number of blocks	         0	         0
	maximum number of blocks	        17	        36
	current total bytes		         0	         0
	maximum total bytes		     80104	  22542920
	maximum total K-bytes		        81	     22543
	maximum total M-bytes		         1	        23


                                     CITATION
                                     --------
                Please cite the following reference when publishing
                           results obtained with NWChem:

          E. Apr, E. J. Bylaska, W. A. de Jong, N. Govind, K. Kowalski,
       T. P. Straatsma, M. Valiev, H. J. J. van Dam, Y. Alexeev, J. Anchell,
       V. Anisimov, F. W. Aquino, R. Atta-Fynn, J. Autschbach, N. P. Bauman,
     J. C. Becca, D. E. Bernholdt, K. Bhaskaran-Nair, S. Bogatko, P. Borowski,
        J. Boschen, J. Brabec, A. Bruner, E. Caut, Y. Chen, G. N. Chuev,
      C. J. Cramer, J. Daily, M. J. O. Deegan, T. H. Dunning Jr., M. Dupuis,
   K. G. Dyall, G. I. Fann, S. A. Fischer, A. Fonari, H. Frchtl, L. Gagliardi,
      J. Garza, N. Gawande, S. Ghosh, K. Glaesemann, A. W. Gtz, J. Hammond,
       V. Helms, E. D. Hermes, K. Hirao, S. Hirata, M. Jacquelin, L. Jensen,
   B. G. Johnson, H. Jnsson, R. A. Kendall, M. Klemm, R. Kobayashi, V. Konkov,
      S. Krishnamoorthy, M. Krishnan, Z. Lin, R. D. Lins, R. J. Littlefield,
      A. J. Logsdail, K. Lopata, W. Ma, A. V. Marenich, J. Martin del Campo,
   D. Mejia-Rodriguez, J. E. Moore, J. M. Mullin, T. Nakajima, D. R. Nascimento,
    J. A. Nichols, P. J. Nichols, J. Nieplocha, A. Otero-de-la-Roza, B. Palmer,
    A. Panyala, T. Pirojsirikul, B. Peng, R. Peverati, J. Pittner, L. Pollack,
   R. M. Richard, P. Sadayappan, G. C. Schatz, W. A. Shelton, D. W. Silverstein,
   D. M. A. Smith, T. A. Soares, D. Song, M. Swart, H. L. Taylor, G. S. Thomas,
            V. Tipparaju, D. G. Truhlar, K. Tsemekhman, T. Van Voorhis,
     . Vzquez-Mayagoitia, P. Verma, O. Villa, A. Vishnu, K. D. Vogiatzis,
        D. Wang, J. H. Weare, M. J. Williamson, T. L. Windus, K. Woliski,
        A. T. Wong, Q. Wu, C. Yang, Q. Yu, M. Zacharias, Z. Zhang, Y. Zhao,
                                and R. J. Harrison
                        "NWChem: Past, present, and future
                         J. Chem. Phys. 152, 184102 (2020)
                               doi:10.1063/5.0004997

                                      AUTHORS
                                      -------
     E. Apra, E. J. Bylaska, N. Govind, K. Kowalski, M. Valiev, W. A. de Jong,
      T. P. Straatsma, H. J. J. van Dam, D. Wang, T. L. Windus, N. P. Bauman,
       A. Panyala, J. Hammond, J. Autschbach, K. Bhaskaran-Nair, J. Brabec,
    K. Lopata, S. A. Fischer, S. Krishnamoorthy, M. Jacquelin, W. Ma, M. Klemm,
       O. Villa, Y. Chen, V. Anisimov, F. Aquino, S. Hirata, M. T. Hackler,
           Eric Hermes, L. Jensen, J. E. Moore, J. C. Becca, V. Konjkov,
            D. Mejia-Rodriguez, T. Risthaus, M. Malagoli, A. Marenich,
   A. Otero-de-la-Roza, J. Mullin, P. Nichols, R. Peverati, J. Pittner, Y. Zhao,
        P.-D. Fan, A. Fonari, M. J. Williamson, R. J. Harrison, J. R. Rehr,
      M. Dupuis, D. Silverstein, D. M. A. Smith, J. Nieplocha, V. Tipparaju,
      M. Krishnan, B. E. Van Kuiken, A. Vazquez-Mayagoitia, M. Swart, Q. Wu,
   T. Van Voorhis, A. A. Auer, M. Nooijen, L. D. Crosby, E. Brown, G. Cisneros,
     G. I. Fann, H. Fruchtl, J. Garza, K. Hirao, R. A. Kendall, J. A. Nichols,
       K. Tsemekhman, K. Wolinski, J. Anchell, D. E. Bernholdt, P. Borowski,
       T. Clark, D. Clerc, H. Dachsel, M. J. O. Deegan, K. Dyall, D. Elwood,
      E. Glendening, M. Gutowski, A. C. Hess, J. Jaffe, B. G. Johnson, J. Ju,
        R. Kobayashi, R. Kutteh, Z. Lin, R. Littlefield, X. Long, B. Meng,
      T. Nakajima, S. Niu, L. Pollack, M. Rosing, K. Glaesemann, G. Sandrone,
      M. Stave, H. Taylor, G. Thomas, J. H. van Lenthe, A. T. Wong, Z. Zhang.

 Total times  cpu:       11.6s     wall:       12.2s
