nohup: ignoring input
 argument  1 = test1_mcscf_2re_ccsdt.nw
  NWChem w/ OpenMP: maximum threads =    1



============================== echo of input deck ==============================
start tce_n2_2re

memory stack 1600 mb heap 100 mb global 2400 mb

echo

geometry units bohr
  symmetry c1
  n 0 0   -2.068
  n 0 0    2.068
end

basis
 * library cc-pvdz
end

mcscf
  active  6
  actelec 6
  multiplicity 1
end

task mcscf

scf
thresh 1.0e-10
tol2e 1.0e-10
singlet
rhf
noscf
end

tce
ccsdt
tilesize 10
lshift 0.2
end

task tce energy

================================================================================


                                         
                                         


             Northwest Computational Chemistry Package (NWChem) 7.0.1
             --------------------------------------------------------


                    Environmental Molecular Sciences Laboratory
                       Pacific Northwest National Laboratory
                                Richland, WA 99352

                              Copyright (c) 1994-2020
                       Pacific Northwest National Laboratory
                            Battelle Memorial Institute

             NWChem is an open-source computational chemistry package
                        distributed under the terms of the
                      Educational Community License (ECL) 2.0
             A copy of the license is included with this distribution
                              in the LICENSE.TXT file

                                  ACKNOWLEDGMENT
                                  --------------

            This software and its documentation were developed at the
            EMSL at Pacific Northwest National Laboratory, a multiprogram
            national laboratory, operated for the U.S. Department of Energy
            by Battelle under Contract Number DE-AC05-76RL01830. Support
            for this work was provided by the Department of Energy Office
            of Biological and Environmental Research, Office of Basic
            Energy Sciences, and the Office of Advanced Scientific Computing.


           Job information
           ---------------

    hostname        = koothan
    program         = /hpc/home/kowalski/nwchem/bin/LINUX64/nwchem
    date            = Wed Apr  7 16:29:10 2021

    compiled        = Sun_Jan_17_18:37:55_2021
    source          = /hpc/home/kowalski/nwchem
    nwchem branch   = 7.0.0
    nwchem revision = nwchem_on_git-2069-ga5c152f2d
    ga revision     = 5.8.0
    use scalapack   = T
    input           = test1_mcscf_2re_ccsdt.nw
    prefix          = tce_n2_2re.
    data base       = ./tce_n2_2re.db
    status          = startup
    nproc           =        1
    time left       =     -1s



           Memory information
           ------------------

    heap     =   13107194 doubles =    100.0 Mbytes
    stack    =  209715199 doubles =   1600.0 Mbytes
    global   =  314572800 doubles =   2400.0 Mbytes (distinct from heap & stack)
    total    =  537395193 doubles =   4100.0 Mbytes
    verify   = yes
    hardfail = no 


           Directory information
           ---------------------

  0 permanent = .
  0 scratch   = .




                                NWChem Input Module
                                -------------------


 Turning off AUTOSYM since
 SYMMETRY directive was detected!


          ------
          auto-z
          ------
     1 autoz failed with cvr_scaling = 1.2 changing to 1.3
     2 autoz failed with cvr_scaling = 1.3 changing to 1.4
     3 autoz failed with cvr_scaling = 1.4 changing to 1.5
     4 autoz failed with cvr_scaling = 1.5 changing to 1.6
  no constraints, skipping    0.0000000000000000     
  no constraints, skipping    0.0000000000000000     


                             Geometry "geometry" -> ""
                             -------------------------

 Output coordinates in a.u. (scale by  1.000000000 to convert to a.u.)

  No.       Tag          Charge          X              Y              Z
 ---- ---------------- ---------- -------------- -------------- --------------
    1 n                    7.0000     0.00000000     0.00000000    -2.06800000
    2 n                    7.0000     0.00000000     0.00000000     2.06800000

      Atomic Mass 
      ----------- 

      n                 14.003070


 Effective nuclear repulsion energy (a.u.)      11.8471953578

            Nuclear Dipole moment (a.u.) 
            ----------------------------
        X                 Y               Z
 ---------------- ---------------- ----------------
     0.0000000000     0.0000000000     0.0000000000



                                Z-matrix (autoz)
                                -------- 

 Units are Angstrom for bonds and degrees for angles

      Type          Name      I     J     K     L     M      Value
      ----------- --------  ----- ----- ----- ----- ----- ----------
    1 Stretch                  1     2                       2.18868


            XYZ format geometry
            -------------------
     2
 geometry
 n                     0.00000000     0.00000000    -1.09433855
 n                     0.00000000     0.00000000     1.09433855



 Summary of "ao basis" -> "" (cartesian)
 ------------------------------------------------------------------------------
       Tag                 Description            Shells   Functions and Types
 ---------------- ------------------------------  ------  ---------------------
 *                          cc-pvdz                   on all atoms 


                      Basis "ao basis" -> "ao basis" (cartesian)
                      -----
  n (Nitrogen)
  ------------
            Exponent  Coefficients 
       -------------- ---------------------------------------------------------
  1 S  9.04600000E+03  0.000700
  1 S  1.35700000E+03  0.005389
  1 S  3.09300000E+02  0.027406
  1 S  8.77300000E+01  0.103207
  1 S  2.85600000E+01  0.278723
  1 S  1.02100000E+01  0.448540
  1 S  3.83800000E+00  0.278238
  1 S  7.46600000E-01  0.015440

  2 S  9.04600000E+03 -0.000153
  2 S  1.35700000E+03 -0.001208
  2 S  3.09300000E+02 -0.005992
  2 S  8.77300000E+01 -0.024544
  2 S  2.85600000E+01 -0.067459
  2 S  1.02100000E+01 -0.158078
  2 S  3.83800000E+00 -0.121831
  2 S  7.46600000E-01  0.549003

  3 S  2.24800000E-01  1.000000

  4 P  1.35500000E+01  0.039919
  4 P  2.91700000E+00  0.217169
  4 P  7.97300000E-01  0.510319

  5 P  2.18500000E-01  1.000000

  6 D  8.17000000E-01  1.000000



 Summary of "ao basis" -> "ao basis" (cartesian)
 ------------------------------------------------------------------------------
       Tag                 Description            Shells   Functions and Types
 ---------------- ------------------------------  ------  ---------------------
 n                          cc-pvdz                  6       15   3s2p1d



                            NWChem Direct MCSCF Module
                            --------------------------


     -----------------------------------
       Basis functions:             30
       Inactive shells:              4
       Active shells:                6
       Active electrons:             6
       Symmetry:                    a       
       Multiplicity:                 1
       Orbital rotations:          224
     -----------------------------------

     -----------------------------------
       E2 extrapolation:             F
       Conjugacy:                    T
       Micro CI relax:               T
       Canonical orbitals:           T
       Maximum iterations:          20
       Converge threshold:    1.00E-04
       Conjugacy resets:            20
       Initial levelshift:        0.10
     -----------------------------------

      Superposition of Atomic Density Guess
      -------------------------------------

 Sum of atomic energies:        -108.60004629

      Non-variational initial energy
      ------------------------------

 Total energy =    -107.682259
 1-e energy   =    -171.391947
 2-e energy   =      51.862492
 HOMO         =      -0.224504
 LUMO         =      -0.160445


   input molecular orbitals = atomic
  output molecular orbtials = ./tce_n2_2re.movecs

       No. of determinants:           400


  Starting Orbital Energies
   -15.656722   -15.656655    -1.020585    -0.904795    -0.283565    -0.224504
    -0.224504    -0.160445    -0.160445    -0.057976     0.871135     0.913720
     0.915357     0.915357     1.028921     1.028921     1.060392     1.260210
     1.912564     1.996817     1.996817     2.038414     2.038414     2.048840
     2.048840     2.112617     2.112617     2.467975     3.787133     3.909289

  Orbital Symmetry Irreps
a    a    a    a    a    a    a    a    a    a    a    a    a    a    a   
a    a    a    a    a    a    a    a    a    a    a    a    a    a    a   
    0 shell      1 out of     12 in             0.29 secs
    0 shell      2 out of     12 in             0.29 secs
    0 shell      3 out of     12 in             0.30 secs
    0 shell      4 out of     12 in             0.31 secs
    0 shell      5 out of     12 in             0.32 secs
    0 shell      6 out of     12 in             0.32 secs
    0 shell      7 out of     12 in             0.33 secs
    0 shell      8 out of     12 in             0.34 secs
    0 shell      9 out of     12 in             0.36 secs
    0 shell     10 out of     12 in             0.38 secs
    0 shell     11 out of     12 in             0.40 secs
    0 shell     12 out of     12 in             0.40 secs



          %%%%% MacroIteration   1 %%%%%


          Number of sigma calls:       21
                       o<<<<< (aa):             0.00
                       o<<<<< (bb):             0.00
                       o<<<<< (ab):             0.00
                       o<<<<< (total)           0.01
                       o<<<<< (aa) ff           0.00
                       o<<<<< (aa) gop          0.00
                       o<<<<< (aa) dot          0.00
                       o<<<<< (ab) str          0.00
                       o<<<<< (ab) gath         0.00
                       o<<<<< (ab) dotab        0.00
                       o<<<<< (ab) scat         0.00
                       o<<<<< (ab) sync         0.00
                       o<<<<< Density           0.00
                       o<<<<< Density one       0.00
                       o<<<<< Density two       0.00
                       o<<<<< Density ab        0.00
                       o<<<<< Spin adapt        0.00
                       o<<<<< Symm adapt        0.00

                       o<<<<< (ab) max sync:      0.00

           >>>| Valence CI:             -9.082235150413
           >>>| MCSCF energy:         -108.718799856897
           >>>| Gradient norm:          0.606388033D+00

                              ----- Line search ------

        step       energy         lsg     num-lsg   num-lsh   lsrat    time
      ------- ---------------- --------- --------- --------- ------- --------
       0.0000    -108.71879986 -1.19D-01  0.00D+00  0.00D+00 0.0D+00      0.4
    0 shell      1 out of     12 in             0.62 secs
    0 shell      2 out of     12 in             0.62 secs
    0 shell      3 out of     12 in             0.62 secs
    0 shell      4 out of     12 in             0.63 secs
    0 shell      5 out of     12 in             0.63 secs
    0 shell      6 out of     12 in             0.63 secs
    0 shell      7 out of     12 in             0.63 secs
    0 shell      8 out of     12 in             0.63 secs
    0 shell      9 out of     12 in             0.63 secs
    0 shell     10 out of     12 in             0.63 secs
    0 shell     11 out of     12 in             0.64 secs
    0 shell     12 out of     12 in             0.64 secs

          Number of sigma calls:       21
                       o<<<<< (aa):             0.00
                       o<<<<< (bb):             0.00
                       o<<<<< (ab):             0.00
                       o<<<<< (total)           0.01
                       o<<<<< (aa) ff           0.00
                       o<<<<< (aa) gop          0.00
                       o<<<<< (aa) dot          0.00
                       o<<<<< (ab) str          0.00
                       o<<<<< (ab) gath         0.00
                       o<<<<< (ab) dotab        0.00
                       o<<<<< (ab) scat         0.00
                       o<<<<< (ab) sync         0.00
                       o<<<<< Density           0.00
                       o<<<<< Density one       0.00
                       o<<<<< Density two       0.00
                       o<<<<< Density ab        0.00
                       o<<<<< Spin adapt        0.01
                       o<<<<< Symm adapt        0.00

                       o<<<<< (ab) max sync:      0.00
       1.0000    -108.78048895 -3.50D-03 -4.11D-03  1.15D-01 2.9D-02      0.5
     --- Orbitals canonicalized ---
    0 shell      1 out of     12 in             0.70 secs
    0 shell      2 out of     12 in             0.70 secs
    0 shell      3 out of     12 in             0.70 secs
    0 shell      4 out of     12 in             0.70 secs
    0 shell      5 out of     12 in             0.70 secs
    0 shell      6 out of     12 in             0.70 secs
    0 shell      7 out of     12 in             0.70 secs
    0 shell      8 out of     12 in             0.71 secs
    0 shell      9 out of     12 in             0.71 secs
    0 shell     10 out of     12 in             0.71 secs
    0 shell     11 out of     12 in             0.71 secs
    0 shell     12 out of     12 in             0.71 secs



          %%%%% MacroIteration   2 %%%%%


          Number of sigma calls:       22
                       o<<<<< (aa):             0.00
                       o<<<<< (bb):             0.00
                       o<<<<< (ab):             0.00
                       o<<<<< (total)           0.01
                       o<<<<< (aa) ff           0.00
                       o<<<<< (aa) gop          0.00
                       o<<<<< (aa) dot          0.00
                       o<<<<< (ab) str          0.00
                       o<<<<< (ab) gath         0.00
                       o<<<<< (ab) dotab        0.00
                       o<<<<< (ab) scat         0.00
                       o<<<<< (ab) sync         0.00
                       o<<<<< Density           0.00
                       o<<<<< Density one       0.00
                       o<<<<< Density two       0.00
                       o<<<<< Density ab        0.00
                       o<<<<< Spin adapt        0.01
                       o<<<<< Symm adapt        0.00

                       o<<<<< (ab) max sync:      0.00

           >>>| Valence CI:             -9.179731955750
           >>>| MCSCF energy:         -108.780488950070
           >>>| Gradient norm:          0.256455168D-01
     --- Conjugacy reset ---

                              ----- Line search ------

        step       energy         lsg     num-lsg   num-lsh   lsrat    time
      ------- ---------------- --------- --------- --------- ------- --------
       0.0000    -108.78048895 -2.36D-04  0.00D+00  0.00D+00 0.0D+00      0.8
    0 shell      1 out of     12 in             0.95 secs
    0 shell      2 out of     12 in             0.95 secs
    0 shell      3 out of     12 in             0.95 secs
    0 shell      4 out of     12 in             0.96 secs
    0 shell      5 out of     12 in             0.96 secs
    0 shell      6 out of     12 in             0.96 secs
    0 shell      7 out of     12 in             0.96 secs
    0 shell      8 out of     12 in             0.96 secs
    0 shell      9 out of     12 in             0.97 secs
    0 shell     10 out of     12 in             0.97 secs
    0 shell     11 out of     12 in             0.97 secs
    0 shell     12 out of     12 in             0.97 secs

          Number of sigma calls:       15
                       o<<<<< (aa):             0.00
                       o<<<<< (bb):             0.00
                       o<<<<< (ab):             0.00
                       o<<<<< (total)           0.01
                       o<<<<< (aa) ff           0.00
                       o<<<<< (aa) gop          0.00
                       o<<<<< (aa) dot          0.00
                       o<<<<< (ab) str          0.00
                       o<<<<< (ab) gath         0.00
                       o<<<<< (ab) dotab        0.00
                       o<<<<< (ab) scat         0.00
                       o<<<<< (ab) sync         0.00
                       o<<<<< Density           0.00
                       o<<<<< Density one       0.00
                       o<<<<< Density two       0.00
                       o<<<<< Density ab        0.00
                       o<<<<< Spin adapt        0.01
                       o<<<<< Symm adapt        0.00

                       o<<<<< (ab) max sync:      0.00
       1.0000    -108.78060979 -5.67D-06 -5.62D-06  2.30D-04 2.4D-02      0.9



          %%%%% MacroIteration   3 %%%%%


          Number of sigma calls:        1
                       o<<<<< (aa):             0.00
                       o<<<<< (bb):             0.00
                       o<<<<< (ab):             0.00
                       o<<<<< (total)           0.00
                       o<<<<< (aa) ff           0.00
                       o<<<<< (aa) gop          0.00
                       o<<<<< (aa) dot          0.00
                       o<<<<< (ab) str          0.00
                       o<<<<< (ab) gath         0.00
                       o<<<<< (ab) dotab        0.00
                       o<<<<< (ab) scat         0.00
                       o<<<<< (ab) sync         0.00
                       o<<<<< Density           0.00
                       o<<<<< Density one       0.00
                       o<<<<< Density two       0.00
                       o<<<<< Density ab        0.00
                       o<<<<< Spin adapt        0.00
                       o<<<<< Symm adapt        0.00

                       o<<<<< (ab) max sync:      0.00

           >>>| Valence CI:             -9.192580028217
           >>>| MCSCF energy:         -108.780609787353
           >>>| Gradient norm:          0.629881457D-03

                              ----- Line search ------

        step       energy         lsg     num-lsg   num-lsh   lsrat    time
      ------- ---------------- --------- --------- --------- ------- --------
       0.0000    -108.78060979 -3.84D-07  0.00D+00  0.00D+00 0.0D+00      1.1
    0 shell      1 out of     12 in             1.25 secs
    0 shell      2 out of     12 in             1.25 secs
    0 shell      3 out of     12 in             1.25 secs
    0 shell      4 out of     12 in             1.25 secs
    0 shell      5 out of     12 in             1.25 secs
    0 shell      6 out of     12 in             1.25 secs
    0 shell      7 out of     12 in             1.25 secs
    0 shell      8 out of     12 in             1.25 secs
    0 shell      9 out of     12 in             1.26 secs
    0 shell     10 out of     12 in             1.26 secs
    0 shell     11 out of     12 in             1.26 secs
    0 shell     12 out of     12 in             1.26 secs

          Number of sigma calls:       12
                       o<<<<< (aa):             0.00
                       o<<<<< (bb):             0.00
                       o<<<<< (ab):             0.00
                       o<<<<< (total)           0.00
                       o<<<<< (aa) ff           0.00
                       o<<<<< (aa) gop          0.00
                       o<<<<< (aa) dot          0.00
                       o<<<<< (ab) str          0.00
                       o<<<<< (ab) gath         0.00
                       o<<<<< (ab) dotab        0.00
                       o<<<<< (ab) scat         0.00
                       o<<<<< (ab) sync         0.00
                       o<<<<< Density           0.00
                       o<<<<< Density one       0.00
                       o<<<<< Density two       0.00
                       o<<<<< Density ab        0.00
                       o<<<<< Spin adapt        0.00
                       o<<<<< Symm adapt        0.00

                       o<<<<< (ab) max sync:      0.00
       1.0000    -108.78060999 -1.42D-08 -1.42D-08  3.70D-07 3.7D-02      1.1



          %%%%% MacroIteration   4 %%%%%


          Number of sigma calls:        1
                       o<<<<< (aa):             0.00
                       o<<<<< (bb):             0.00
                       o<<<<< (ab):             0.00
                       o<<<<< (total)           0.00
                       o<<<<< (aa) ff           0.00
                       o<<<<< (aa) gop          0.00
                       o<<<<< (aa) dot          0.00
                       o<<<<< (ab) str          0.00
                       o<<<<< (ab) gath         0.00
                       o<<<<< (ab) dotab        0.00
                       o<<<<< (ab) scat         0.00
                       o<<<<< (ab) sync         0.00
                       o<<<<< Density           0.00
                       o<<<<< Density one       0.00
                       o<<<<< Density two       0.00
                       o<<<<< Density ab        0.00
                       o<<<<< Spin adapt        0.00
                       o<<<<< Symm adapt        0.00

                       o<<<<< (ab) max sync:      0.00

           >>>| Valence CI:             -9.193195302142
           >>>| MCSCF energy:         -108.780609986329
           >>>| Gradient norm:          0.642096277D-04




     ==============================
            MCSCF Converged
     ==============================



          Canonical Eigenvalues

              1      
    1  -15.6468
    2  -15.6467
    3   -0.9903
    4   -0.9180
    5   -0.3991
    6   -0.3225
    7   -0.3225
    8   -0.2444
    9   -0.2444
   10   -0.1635
   11    0.8724
   12    0.9084
   13    0.9087
   14    0.9087
   15    1.0216
   16    1.0216
   17    1.0587
   18    1.2575
   19    1.9132
   20    1.9980
   21    1.9980
   22    2.0403
   23    2.0403
   24    2.0515
   25    2.0515
   26    2.1156
   27    2.1156
   28    2.4706
   29    3.7909
   30    3.9134

    0 shell      1 out of     12 in             1.35 secs
    0 shell      2 out of     12 in             1.35 secs
    0 shell      3 out of     12 in             1.35 secs
    0 shell      4 out of     12 in             1.35 secs
    0 shell      5 out of     12 in             1.36 secs
    0 shell      6 out of     12 in             1.36 secs
    0 shell      7 out of     12 in             1.36 secs
    0 shell      8 out of     12 in             1.36 secs
    0 shell      9 out of     12 in             1.36 secs
    0 shell     10 out of     12 in             1.36 secs
    0 shell     11 out of     12 in             1.36 secs
    0 shell     12 out of     12 in             1.37 secs

          Converged CI vector

   Index           Coefficient          Config. Occupation
         1          0.44450395          1  2  3  1  2  3
         8          0.10223335          1  2  3  1  4  5
        15          0.05806793          1  2  3  2  4  6
        19          0.05806793          1  2  3  3  5  6
        22         -0.33430987          1  2  4  1  2  4
        26         -0.11420055          1  2  4  1  3  5
        33         -0.08487343          1  2  4  2  3  6
        40         -0.04728307          1  2  4  4  5  6
        83         -0.21643390          1  2  5  1  3  4
       204         -0.14294136          1  2  6  2  3  4
        45         -0.21643390          1  3  4  1  2  5
       102         -0.11420055          1  3  5  1  2  4
       106         -0.33430987          1  3  5  1  3  5
       113         -0.08487343          1  3  5  2  3  6
       120         -0.04728307          1  3  5  4  5  6
       227         -0.14294136          1  3  6  2  3  5
       141          0.10223335          1  4  5  1  2  3
       148          0.26354632          1  4  5  1  4  5
       155          0.07018799          1  4  5  2  4  6
       159          0.07018799          1  4  5  3  5  6
       269          0.11747106          1  4  6  2  4  5
       330          0.11747106          1  5  6  3  4  5
        71         -0.14294136          2  3  4  1  2  6
       132         -0.14294136          2  3  5  1  3  6
       242         -0.08487343          2  3  6  1  2  4
       246         -0.08487343          2  3  6  1  3  5
       253         -0.19891315          2  3  6  2  3  6
       260         -0.05210532          2  3  6  4  5  6
       174          0.11747106          2  4  5  1  4  6
       281          0.05806793          2  4  6  1  2  3
       288          0.07018799          2  4  6  1  4  5
       295          0.17155103          2  4  6  2  4  6
       299          0.05885642          2  4  6  3  5  6
       356          0.11096174          2  5  6  3  4  6
       197          0.11747106          3  4  5  1  5  6
       318          0.11096174          3  4  6  2  5  6
       361          0.05806793          3  5  6  1  2  3
       368          0.07018799          3  5  6  1  4  5
       375          0.05885642          3  5  6  2  4  6
       379          0.17155103          3  5  6  3  5  6
       382         -0.04728307          4  5  6  1  2  4
       386         -0.04728307          4  5  6  1  3  5
       393         -0.05210532          4  5  6  2  3  6
       400         -0.15604905          4  5  6  4  5  6

          Number of sigma calls:        1
                       o<<<<< (aa):             0.00
                       o<<<<< (bb):             0.00
                       o<<<<< (ab):             0.00
                       o<<<<< (total)           0.00
                       o<<<<< (aa) ff           0.00
                       o<<<<< (aa) gop          0.00
                       o<<<<< (aa) dot          0.00
                       o<<<<< (ab) str          0.00
                       o<<<<< (ab) gath         0.00
                       o<<<<< (ab) dotab        0.00
                       o<<<<< (ab) scat         0.00
                       o<<<<< (ab) sync         0.00
                       o<<<<< Density           0.00
                       o<<<<< Density one       0.00
                       o<<<<< Density two       0.00
                       o<<<<< Density ab        0.00
                       o<<<<< Spin adapt        0.00
                       o<<<<< Symm adapt        0.00

                       o<<<<< (ab) max sync:      0.00



          Natural orbital occupation numbers

              1      
    1    2.0000
    2    2.0000
    3    2.0000
    4    2.0000
    5    1.4719
    6    1.1635
    7    1.1635
    8    0.8365
    9    0.8365
   10    0.5281

    0 shell      1 out of     12 in             1.37 secs
    0 shell      2 out of     12 in             1.37 secs
    0 shell      3 out of     12 in             1.37 secs
    0 shell      4 out of     12 in             1.37 secs
    0 shell      5 out of     12 in             1.38 secs
    0 shell      6 out of     12 in             1.38 secs
    0 shell      7 out of     12 in             1.38 secs
    0 shell      8 out of     12 in             1.38 secs
    0 shell      9 out of     12 in             1.38 secs
    0 shell     10 out of     12 in             1.38 secs
    0 shell     11 out of     12 in             1.38 secs
    0 shell     12 out of     12 in             1.38 secs

          Number of sigma calls:       23
                       o<<<<< (aa):             0.00
                       o<<<<< (bb):             0.00
                       o<<<<< (ab):             0.00
                       o<<<<< (total)           0.01
                       o<<<<< (aa) ff           0.00
                       o<<<<< (aa) gop          0.00
                       o<<<<< (aa) dot          0.00
                       o<<<<< (ab) str          0.00
                       o<<<<< (ab) gath         0.00
                       o<<<<< (ab) dotab        0.00
                       o<<<<< (ab) scat         0.00
                       o<<<<< (ab) sync         0.00
                       o<<<<< Density           0.00
                       o<<<<< Density one       0.00
                       o<<<<< Density two       0.00
                       o<<<<< Density ab        0.00
                       o<<<<< Spin adapt        0.01
                       o<<<<< Symm adapt        0.00

                       o<<<<< (ab) max sync:      0.00


       Final MCSCF results 
       ------------------- 

       Total MCSCF energy =   -108.780609985809
            Gradient norm =      6.4D-05

    CPU time for solution =      1.2s
   Wall time for solution =      1.2s



                        Analysis of MCSCF natural orbitals
                        ----------------------------------

 Vector    1  Occ=2.000000D+00  E=-1.564680D+01  Symmetry=a
              MO Center= -7.7D-19,  2.1D-19, -1.2D-06, r^2= 1.2D+00
   Bfn.  Coefficient  Atom+Function         Bfn.  Coefficient  Atom+Function  
  ----- ------------  ---------------      ----- ------------  ---------------
     1      0.707588  1 N  s                 16      0.707587  2 N  s          

 Vector    2  Occ=2.000000D+00  E=-1.564675D+01  Symmetry=a
              MO Center=  5.1D-19, -1.4D-19,  1.2D-06, r^2= 1.2D+00
   Bfn.  Coefficient  Atom+Function         Bfn.  Coefficient  Atom+Function  
  ----- ------------  ---------------      ----- ------------  ---------------
     1      0.707678  1 N  s                 16     -0.707679  2 N  s          

 Vector    3  Occ=2.000000D+00  E=-9.902795D-01  Symmetry=a
              MO Center=  1.9D-16, -4.2D-16, -4.3D-10, r^2= 1.8D+00
   Bfn.  Coefficient  Atom+Function         Bfn.  Coefficient  Atom+Function  
  ----- ------------  ---------------      ----- ------------  ---------------
     3      0.394621  1 N  s                 18      0.394621  2 N  s          
     2      0.347303  1 N  s                 17      0.347303  2 N  s          

 Vector    4  Occ=2.000000D+00  E=-9.180436D-01  Symmetry=a
              MO Center=  4.4D-16, -1.0D-16,  4.3D-10, r^2= 1.9D+00
   Bfn.  Coefficient  Atom+Function         Bfn.  Coefficient  Atom+Function  
  ----- ------------  ---------------      ----- ------------  ---------------
     3      0.424496  1 N  s                 18     -0.424496  2 N  s          
     2      0.365783  1 N  s                 17     -0.365783  2 N  s          

 Vector    5  Occ=1.471914D+00  E=-3.991189D-01  Symmetry=a
              MO Center= -5.6D-15, -1.7D-15,  1.7D-11, r^2= 1.8D+00
   Bfn.  Coefficient  Atom+Function         Bfn.  Coefficient  Atom+Function  
  ----- ------------  ---------------      ----- ------------  ---------------
     6      0.442790  1 N  pz                21     -0.442790  2 N  pz         
     9      0.305728  1 N  pz                24     -0.305728  2 N  pz         

 Vector    6  Occ=1.163473D+00  E=-3.225463D-01  Symmetry=a
              MO Center= -3.4D-18,  2.0D-15,  1.7D-10, r^2= 1.9D+00
   Bfn.  Coefficient  Atom+Function         Bfn.  Coefficient  Atom+Function  
  ----- ------------  ---------------      ----- ------------  ---------------
     5      0.463596  1 N  py                20      0.463596  2 N  py         
     8      0.322872  1 N  py                23      0.322872  2 N  py         

 Vector    7  Occ=1.163473D+00  E=-3.225463D-01  Symmetry=a
              MO Center=  5.4D-15, -1.8D-16,  1.7D-10, r^2= 1.9D+00
   Bfn.  Coefficient  Atom+Function         Bfn.  Coefficient  Atom+Function  
  ----- ------------  ---------------      ----- ------------  ---------------
     4      0.463596  1 N  px                19      0.463596  2 N  px         
     7      0.322872  1 N  px                22      0.322872  2 N  px         

 Vector    8  Occ=8.365186D-01  E=-2.443501D-01  Symmetry=a
              MO Center=  7.0D-15, -4.1D-15, -1.6D-10, r^2= 1.9D+00
   Bfn.  Coefficient  Atom+Function         Bfn.  Coefficient  Atom+Function  
  ----- ------------  ---------------      ----- ------------  ---------------
     4      0.423939  1 N  px                19     -0.423939  2 N  px         
     7      0.281104  1 N  px                22     -0.281104  2 N  px         
     5     -0.258431  1 N  py                20      0.258431  2 N  py         
     8     -0.171360  1 N  py                23      0.171360  2 N  py         

 Vector    9  Occ=8.365186D-01  E=-2.443501D-01  Symmetry=a
              MO Center=  4.5D-15,  7.3D-15, -1.6D-10, r^2= 1.9D+00
   Bfn.  Coefficient  Atom+Function         Bfn.  Coefficient  Atom+Function  
  ----- ------------  ---------------      ----- ------------  ---------------
     5      0.423939  1 N  py                20     -0.423939  2 N  py         
     8      0.281104  1 N  py                23     -0.281104  2 N  py         
     4      0.258431  1 N  px                19     -0.258431  2 N  px         
     7      0.171360  1 N  px                22     -0.171360  2 N  px         

 Vector   10  Occ=5.281033D-01  E=-1.635311D-01  Symmetry=a
              MO Center= -1.1D-14, -3.0D-15, -1.7D-11, r^2= 1.8D+00
   Bfn.  Coefficient  Atom+Function         Bfn.  Coefficient  Atom+Function  
  ----- ------------  ---------------      ----- ------------  ---------------
     6      0.537629  1 N  pz                21      0.537629  2 N  pz         
     9      0.360743  1 N  pz                24      0.360743  2 N  pz         

 Vector   11  Occ=0.000000D+00  E= 8.723966D-01  Symmetry=a
              MO Center= -1.7D-15, -9.2D-16, -6.6D-10, r^2= 3.1D+00
   Bfn.  Coefficient  Atom+Function         Bfn.  Coefficient  Atom+Function  
  ----- ------------  ---------------      ----- ------------  ---------------
     3      1.252055  1 N  s                 18      1.252055  2 N  s          
     2     -0.876553  1 N  s                 17     -0.876553  2 N  s          
     1     -0.395399  1 N  s                 16     -0.395399  2 N  s          
    10     -0.206189  1 N  dxx               13     -0.206189  1 N  dyy        
    25     -0.206189  2 N  dxx               28     -0.206189  2 N  dyy        

 Vector   12  Occ=0.000000D+00  E= 9.083733D-01  Symmetry=a
              MO Center= -4.2D-15,  6.3D-15,  5.4D-10, r^2= 4.3D+00
   Bfn.  Coefficient  Atom+Function         Bfn.  Coefficient  Atom+Function  
  ----- ------------  ---------------      ----- ------------  ---------------
     3      0.806848  1 N  s                 18     -0.806848  2 N  s          
     9     -0.648713  1 N  pz                24     -0.648713  2 N  pz         
     2     -0.600644  1 N  s                 17      0.600644  2 N  s          
     6      0.473326  1 N  pz                21      0.473326  2 N  pz         
     1     -0.268252  1 N  s                 16      0.268252  2 N  s          

 Vector   13  Occ=0.000000D+00  E= 9.087223D-01  Symmetry=a
              MO Center= -9.5D-17,  2.2D-16, -2.1D-10, r^2= 2.5D+00
   Bfn.  Coefficient  Atom+Function         Bfn.  Coefficient  Atom+Function  
  ----- ------------  ---------------      ----- ------------  ---------------
     8     -0.663779  1 N  py                23     -0.663779  2 N  py         
     5      0.650395  1 N  py                20      0.650395  2 N  py         
     7      0.194612  1 N  px                22      0.194612  2 N  px         
     4     -0.190688  1 N  px                19     -0.190688  2 N  px         

 Vector   14  Occ=0.000000D+00  E= 9.087223D-01  Symmetry=a
              MO Center=  2.2D-15,  6.8D-16, -2.1D-10, r^2= 2.5D+00
   Bfn.  Coefficient  Atom+Function         Bfn.  Coefficient  Atom+Function  
  ----- ------------  ---------------      ----- ------------  ---------------
     7     -0.663779  1 N  px                22     -0.663779  2 N  px         
     4      0.650395  1 N  px                19      0.650395  2 N  px         
     8     -0.194612  1 N  py                23     -0.194612  2 N  py         
     5      0.190688  1 N  py                20      0.190688  2 N  py         

 Vector   15  Occ=0.000000D+00  E= 1.021572D+00  Symmetry=a
              MO Center=  1.1D-15, -7.8D-15,  2.1D-10, r^2= 3.0D+00
   Bfn.  Coefficient  Atom+Function         Bfn.  Coefficient  Atom+Function  
  ----- ------------  ---------------      ----- ------------  ---------------
     8      0.839476  1 N  py                23     -0.839476  2 N  py         
     5     -0.668562  1 N  py                20      0.668562  2 N  py         

 Vector   16  Occ=0.000000D+00  E= 1.021572D+00  Symmetry=a
              MO Center=  1.0D-15,  1.4D-16,  2.1D-10, r^2= 3.0D+00
   Bfn.  Coefficient  Atom+Function         Bfn.  Coefficient  Atom+Function  
  ----- ------------  ---------------      ----- ------------  ---------------
     7      0.839476  1 N  px                22     -0.839476  2 N  px         
     4     -0.668562  1 N  px                19      0.668562  2 N  px         

 Vector   17  Occ=0.000000D+00  E= 1.058719D+00  Symmetry=a
              MO Center= -4.1D-16,  7.5D-17,  8.3D-11, r^2= 2.3D+00
   Bfn.  Coefficient  Atom+Function         Bfn.  Coefficient  Atom+Function  
  ----- ------------  ---------------      ----- ------------  ---------------
     6      0.715649  1 N  pz                21     -0.715649  2 N  pz         
     9     -0.650304  1 N  pz                24      0.650304  2 N  pz         

 Vector   18  Occ=0.000000D+00  E= 1.257513D+00  Symmetry=a
              MO Center=  1.9D-15,  1.4D-15,  2.7D-11, r^2= 2.3D+00
   Bfn.  Coefficient  Atom+Function         Bfn.  Coefficient  Atom+Function  
  ----- ------------  ---------------      ----- ------------  ---------------
     3      1.547823  1 N  s                 18     -1.547823  2 N  s          
     9      1.000376  1 N  pz                24      1.000376  2 N  pz         
     2     -0.797432  1 N  s                 17      0.797432  2 N  s          
     6     -0.438423  1 N  pz                21     -0.438423  2 N  pz         
     1     -0.407993  1 N  s                 16      0.407993  2 N  s          

 Vector   19  Occ=0.000000D+00  E= 1.913196D+00  Symmetry=a
              MO Center=  9.9D-17, -3.3D-18, -3.0D-11, r^2= 1.9D+00
   Bfn.  Coefficient  Atom+Function         Bfn.  Coefficient  Atom+Function  
  ----- ------------  ---------------      ----- ------------  ---------------
    15      0.731525  1 N  dzz               30      0.731525  2 N  dzz        
    10     -0.313073  1 N  dxx               13     -0.313073  1 N  dyy        
    25     -0.313073  2 N  dxx               28     -0.313073  2 N  dyy        

 Vector   20  Occ=0.000000D+00  E= 1.998028D+00  Symmetry=a
              MO Center=  1.1D-17, -2.0D-16, -2.4D-10, r^2= 1.9D+00
   Bfn.  Coefficient  Atom+Function         Bfn.  Coefficient  Atom+Function  
  ----- ------------  ---------------      ----- ------------  ---------------
    12      1.118729  1 N  dxz               27     -1.118729  2 N  dxz        
    14      0.482258  1 N  dyz               29     -0.482258  2 N  dyz        


 Wrote Lagrangian and 1- and 2-particle density matrices to ./tce_n2_2re.mcpdm


     Multipole analysis of the density
     ---------------------------------

     L   x y z        total        nuclear
     -   - - -        -----        -------
     0   0 0 0     -0.000000     14.000000

     1   1 0 0     -0.000000      0.000000
     1   0 1 0     -0.000000      0.000000
     1   0 0 1     -0.000000      0.000000

     2   2 0 0     -7.935036      0.000000
     2   1 1 0      0.000000      0.000000
     2   1 0 1      0.000000      0.000000
     2   0 2 0     -7.935036      0.000000
     2   0 1 1     -0.000000      0.000000
     2   0 0 2     -8.337709     59.872736


  Mulliken analysis of the total density
  --------------------------------------

    Atom       Charge   Shell Charges
 -----------   ------   -------------------------------------------------------
    1 N    7     7.00   2.00  0.92  1.07  1.85  1.15 -0.00
    2 N    7     7.00   2.00  0.92  1.07  1.85  1.15 -0.00

    Mulliken analysis of the active space density
    ---------------------------------------------

    Atom       Charge   Shell Charges
 -----------   ------   -------------------------------------------------------
    1 N    7     3.00   0.00  0.00 -0.00  1.85  1.15  0.00
    2 N    7     3.00   0.00  0.00 -0.00  1.85  1.15  0.00

 Task  times  cpu:        1.3s     wall:        1.3s


                                NWChem Input Module
                                -------------------


                                 NWChem SCF Module
                                 -----------------



  ao basis        = "ao basis"
  functions       =    30
  atoms           =     2
  closed shells   =     7
  open shells     =     0
  charge          =   0.00
  wavefunction    = RHF 
  input vectors   = atomic
  output vectors  = ./tce_n2_2re.movecs
  use symmetry    = F
  symmetry adapt  = F


 Summary of "ao basis" -> "ao basis" (cartesian)
 ------------------------------------------------------------------------------
       Tag                 Description            Shells   Functions and Types
 ---------------- ------------------------------  ------  ---------------------
 n                          cc-pvdz                  6       15   3s2p1d



 Forming initial guess at       1.5s


      Superposition of Atomic Density Guess
      -------------------------------------

 Sum of atomic energies:        -108.60004629

      Non-variational initial energy
      ------------------------------

 Total energy =    -107.682259
 1-e energy   =    -171.391947
 2-e energy   =      51.862493
 HOMO         =      -0.224504
 LUMO         =      -0.160445


 Starting SCF solution at       1.5s



 ----------------------------------------------
         Quadratically convergent ROHF

 Convergence threshold     :          1.000E-10
 Maximum no. of iterations :           30
 Final Fock-matrix accuracy:          1.000E-10
 ----------------------------------------------



       Final RHF  results 
       ------------------ 

         Total SCF energy =   -108.226914521664
      One-electron energy =   -169.783039258702
      Two-electron energy =     49.708929379204
 Nuclear repulsion energy =     11.847195357834

        Time for solution =      0.0s


             Final eigenvalues
             -----------------

              1      
    1  -15.6567
    2  -15.6567
    3   -1.0206
    4   -0.9048
    5   -0.2836
    6   -0.2245
    7   -0.2245
    8   -0.1604
    9   -0.1604
   10   -0.0580
   11    0.8711
   12    0.9137
   13    0.9154
   14    0.9154
   15    1.0289
   16    1.0289
   17    1.0604

                       ROHF Final Molecular Orbital Analysis
                       -------------------------------------

 Vector    2  Occ=2.000000D+00  E=-1.565665D+01
              MO Center=  1.7D-20, -1.1D-20,  1.5D-10, r^2= 1.2D+00
   Bfn.  Coefficient  Atom+Function         Bfn.  Coefficient  Atom+Function  
  ----- ------------  ---------------      ----- ------------  ---------------
     1      0.707622  1 N  s                 16     -0.707622  2 N  s          

 Vector    3  Occ=2.000000D+00  E=-1.020585D+00
              MO Center= -3.0D-16, -7.7D-17, -1.3D-14, r^2= 1.6D+00
   Bfn.  Coefficient  Atom+Function         Bfn.  Coefficient  Atom+Function  
  ----- ------------  ---------------      ----- ------------  ---------------
     3      0.386280  1 N  s                 18      0.386280  2 N  s          
     2      0.344816  1 N  s                 17      0.344816  2 N  s          

 Vector    4  Occ=2.000000D+00  E=-9.047952D-01
              MO Center= -7.4D-18,  6.1D-18,  1.3D-14, r^2= 2.0D+00
   Bfn.  Coefficient  Atom+Function         Bfn.  Coefficient  Atom+Function  
  ----- ------------  ---------------      ----- ------------  ---------------
     3      0.421963  1 N  s                 18     -0.421963  2 N  s          
     2      0.366362  1 N  s                 17     -0.366362  2 N  s          

 Vector    5  Occ=2.000000D+00  E=-2.835654D-01
              MO Center= -3.4D-17,  1.8D-16,  4.7D-15, r^2= 2.1D+00
   Bfn.  Coefficient  Atom+Function         Bfn.  Coefficient  Atom+Function  
  ----- ------------  ---------------      ----- ------------  ---------------
     6      0.400517  1 N  pz                21     -0.400517  2 N  pz         
     9      0.341852  1 N  pz                24     -0.341852  2 N  pz         

 Vector    6  Occ=2.000000D+00  E=-2.245043D-01
              MO Center=  8.0D-17, -8.4D-17,  4.6D-14, r^2= 2.0D+00
   Bfn.  Coefficient  Atom+Function         Bfn.  Coefficient  Atom+Function  
  ----- ------------  ---------------      ----- ------------  ---------------
     5      0.373931  1 N  py                20      0.373931  2 N  py         
     8      0.352374  1 N  py                23      0.352374  2 N  py         
     4     -0.153435  1 N  px                19     -0.153435  2 N  px         

 Vector    7  Occ=2.000000D+00  E=-2.245043D-01
              MO Center=  4.4D-16,  1.0D-16,  5.6D-14, r^2= 2.0D+00
   Bfn.  Coefficient  Atom+Function         Bfn.  Coefficient  Atom+Function  
  ----- ------------  ---------------      ----- ------------  ---------------
     4      0.373931  1 N  px                19      0.373931  2 N  px         
     7      0.352374  1 N  px                22      0.352374  2 N  px         
     5      0.153435  1 N  py                20      0.153435  2 N  py         

 Vector    8  Occ=0.000000D+00  E=-1.604455D-01
              MO Center=  3.9D-17, -1.6D-17, -4.5D-14, r^2= 2.1D+00
   Bfn.  Coefficient  Atom+Function         Bfn.  Coefficient  Atom+Function  
  ----- ------------  ---------------      ----- ------------  ---------------
     5      0.431559  1 N  py                20     -0.431559  2 N  py         
     8      0.399485  1 N  py                23     -0.399485  2 N  py         

 Vector    9  Occ=0.000000D+00  E=-1.604455D-01
              MO Center=  3.0D-17, -1.3D-16, -5.6D-14, r^2= 2.1D+00
   Bfn.  Coefficient  Atom+Function         Bfn.  Coefficient  Atom+Function  
  ----- ------------  ---------------      ----- ------------  ---------------
     4      0.431559  1 N  px                19     -0.431559  2 N  px         
     7      0.399485  1 N  px                22     -0.399485  2 N  px         

 Vector   10  Occ=0.000000D+00  E=-5.797623D-02
              MO Center= -3.7D-17, -6.6D-17, -2.8D-15, r^2= 2.1D+00
   Bfn.  Coefficient  Atom+Function         Bfn.  Coefficient  Atom+Function  
  ----- ------------  ---------------      ----- ------------  ---------------
     9      0.471991  1 N  pz                24      0.471991  2 N  pz         
     6      0.464793  1 N  pz                21      0.464793  2 N  pz         

 Vector   11  Occ=0.000000D+00  E= 8.711361D-01
              MO Center= -2.2D-16, -6.1D-15,  1.0D-13, r^2= 3.1D+00
   Bfn.  Coefficient  Atom+Function         Bfn.  Coefficient  Atom+Function  
  ----- ------------  ---------------      ----- ------------  ---------------
     3      1.252205  1 N  s                 18      1.252205  2 N  s          
     2     -0.875208  1 N  s                 17     -0.875208  2 N  s          
     1     -0.395068  1 N  s                 16     -0.395068  2 N  s          
    10     -0.205396  1 N  dxx               13     -0.205396  1 N  dyy        
    25     -0.205396  2 N  dxx               28     -0.205396  2 N  dyy        

 Vector   12  Occ=0.000000D+00  E= 9.137208D-01
              MO Center=  4.1D-16, -2.9D-17, -1.1D-13, r^2= 4.0D+00
   Bfn.  Coefficient  Atom+Function         Bfn.  Coefficient  Atom+Function  
  ----- ------------  ---------------      ----- ------------  ---------------
     3      0.835651  1 N  s                 18     -0.835651  2 N  s          
     2     -0.604804  1 N  s                 17      0.604804  2 N  s          
     9     -0.594107  1 N  pz                24     -0.594107  2 N  pz         
     6      0.518382  1 N  pz                21      0.518382  2 N  pz         
     1     -0.273078  1 N  s                 16      0.273078  2 N  s          

 Vector   13  Occ=0.000000D+00  E= 9.153570D-01
              MO Center= -7.3D-16,  1.1D-16,  2.8D-14, r^2= 2.4D+00
   Bfn.  Coefficient  Atom+Function         Bfn.  Coefficient  Atom+Function  
  ----- ------------  ---------------      ----- ------------  ---------------
     4      0.708977  1 N  px                19      0.708977  2 N  px         
     7     -0.656372  1 N  px                22     -0.656372  2 N  px         

 Vector   14  Occ=0.000000D+00  E= 9.153570D-01
              MO Center=  8.0D-16,  6.5D-15, -5.2D-15, r^2= 2.4D+00
   Bfn.  Coefficient  Atom+Function         Bfn.  Coefficient  Atom+Function  
  ----- ------------  ---------------      ----- ------------  ---------------
     5      0.708977  1 N  py                20      0.708977  2 N  py         
     8     -0.656372  1 N  py                23     -0.656372  2 N  py         

 Vector   15  Occ=0.000000D+00  E= 1.028921D+00
              MO Center= -2.8D-16,  5.8D-17, -2.8D-14, r^2= 2.8D+00
   Bfn.  Coefficient  Atom+Function         Bfn.  Coefficient  Atom+Function  
  ----- ------------  ---------------      ----- ------------  ---------------
     7      0.804472  1 N  px                22     -0.804472  2 N  px         
     4     -0.707031  1 N  px                19      0.707031  2 N  px         

 Vector   16  Occ=0.000000D+00  E= 1.028921D+00
              MO Center= -1.5D-19, -4.1D-17,  4.3D-15, r^2= 2.8D+00
   Bfn.  Coefficient  Atom+Function         Bfn.  Coefficient  Atom+Function  
  ----- ------------  ---------------      ----- ------------  ---------------
     8      0.804472  1 N  py                23     -0.804472  2 N  py         
     5     -0.707031  1 N  py                20      0.707031  2 N  py         

 Vector   17  Occ=0.000000D+00  E= 1.060392D+00
              MO Center= -7.1D-17, -3.3D-16, -5.8D-15, r^2= 2.2D+00
   Bfn.  Coefficient  Atom+Function         Bfn.  Coefficient  Atom+Function  
  ----- ------------  ---------------      ----- ------------  ---------------
     6      0.738434  1 N  pz                21     -0.738434  2 N  pz         
     9     -0.629228  1 N  pz                24      0.629228  2 N  pz         


 center of mass
 --------------
 x =   0.00000000 y =   0.00000000 z =   0.00000000

 moments of inertia (a.u.)
 ------------------
         119.771730471360           0.000000000000           0.000000000000
           0.000000000000         119.771730471360           0.000000000000
           0.000000000000           0.000000000000           0.000000000000

  Mulliken analysis of the total density
  --------------------------------------

    Atom       Charge   Shell Charges
 -----------   ------   -------------------------------------------------------
    1 N    7     7.00   2.00  0.92  1.07  1.50  1.51 -0.00
    2 N    7     7.00   2.00  0.92  1.07  1.50  1.51 -0.00

       Multipole analysis of the density wrt the origin
       ------------------------------------------------

     L   x y z        total         open         nuclear
     -   - - -        -----         ----         -------
     0   0 0 0     -0.000000      0.000000     14.000000

     1   1 0 0     -0.000000      0.000000      0.000000
     1   0 1 0     -0.000000      0.000000      0.000000
     1   0 0 1     -0.000000      0.000000      0.000000

     2   2 0 0     -9.009777      0.000000      0.000000
     2   1 1 0      0.000000      0.000000      0.000000
     2   1 0 1     -0.000000      0.000000      0.000000
     2   0 2 0     -9.009777      0.000000      0.000000
     2   0 1 1     -0.000000      0.000000      0.000000
     2   0 0 2     -8.239625      0.000000     59.872736

                   NWChem Extensible Many-Electron Theory Module
                   ---------------------------------------------

              ======================================================
                   This portion of the program was automatically
                  generated by a Tensor Contraction Engine (TCE).
                  The development of this portion of the program
                 and TCE was supported by US Department of Energy,
                Office of Science, Office of Basic Energy Science.
                      TCE is a product of Battelle and PNNL.
              Please cite: S.Hirata, J.Phys.Chem.A 107, 9887 (2003).
              ======================================================

            General Information
            -------------------
      Number of processors :     1
         Wavefunction type : Restricted Hartree-Fock
          No. of electrons :    14
           Alpha electrons :     7
            Beta electrons :     7
           No. of orbitals :    60
            Alpha orbitals :    30
             Beta orbitals :    30
        Alpha frozen cores :     0
         Beta frozen cores :     0
     Alpha frozen virtuals :     0
      Beta frozen virtuals :     0
         Spin multiplicity : singlet 
    Number of AO functions :    30
       Number of AO shells :    12
        Use of symmetry is : off
      Symmetry adaption is : off
         Schwarz screening : 0.10D-09

          Correlation Information
          -----------------------
          Calculation type : Coupled-cluster singles, doubles, & triples                 
   Perturbative correction : none                                                        
            Max iterations :      100
        Residual threshold : 0.10D-06
     T(0) DIIS level shift : 0.20D+00
     L(0) DIIS level shift : 0.00D+00
     T(1) DIIS level shift : 0.00D+00
     L(1) DIIS level shift : 0.00D+00
     T(R) DIIS level shift : 0.00D+00
     T(I) DIIS level shift : 0.00D+00
   CC-T/L Amplitude update :  5-th order DIIS
                I/O scheme : Global Array Library
        L-threshold :  0.10D-06
        EOM-threshold :  0.10D-06
 no EOMCCSD initial starts read in
 TCE RESTART OPTIONS
 READ_INT:   F
 WRITE_INT:  F
 READ_TA:    F
 WRITE_TA:   F
 READ_XA:    F
 WRITE_XA:   F
 READ_IN3:   F
 WRITE_IN3:  F
 SLICE:      F
 D4D5:       F
 quantumc:   F
 qrotation:  F
 pwtce:      F
 qducc:      F
 nacto:                         0
 nrotv:                         0
 nrot:                          0

            Memory Information
            ------------------
          Available GA space size is     314571900 doubles
          Available MA space size is     222820676 doubles

 Maximum block size supplied by input
 Maximum block size        10 doubles

 tile_dim =      8

 Block   Spin    Irrep     Size     Offset   Alpha
 -------------------------------------------------
   1    alpha     a      7 doubles       0       1
   2    beta      a      7 doubles       7       1
   3    alpha     a      7 doubles      14       3
   4    alpha     a      8 doubles      21       4
   5    alpha     a      8 doubles      29       5
   6    beta      a      7 doubles      37       3
   7    beta      a      8 doubles      44       4
   8    beta      a      8 doubles      52       5

 Global array virtual files algorithm will be used

 Parallel file system coherency ......... OK

 Fock matrix recomputed
 1-e file size   =              900
 1-e file name   = ./tce_n2_2re.f1
 Cpu & wall time / sec            0.0            0.0

 tce_ao2e: fast2e=1
 half-transformed integrals in memory

 2-e (intermediate) file size =         1823400
 2-e (intermediate) file name = ./tce_n2_2re.v2i
 Cpu & wall time / sec            0.2            0.2

 tce_mo2e: fast2e=1
 2-e integrals stored in memory

 2-e file size   =          1126969
 2-e file name   = ./tce_n2_2re.v2
 Cpu & wall time / sec            0.1            0.1
 T1-number-of-tasks                    3

 t1 file size   =              161
 t1 file name   = ./tce_n2_2re.t1
 t1 file handle =       -999
 T2-number-of-boxes                   15

 t2 file size   =            43218
 t2 file name   = ./tce_n2_2re.t2
 t2 file handle =       -996

 t3 file size   =          7119651
 t3 file name   = ./tce_n2_2re.t3

 CCSDT iterations
 --------------------------------------------------------
 Iter          Residuum       Correlation     Cpu    Wall
 --------------------------------------------------------
    1   4.9998626173582  -2.7340012441401     4.7     4.8
    2  10.1684168868530   3.0538619605153     4.7     4.8
    3  36.1272186409340  -3.9752921981076     4.7     4.8
    4 479.6005204806309   9.3380888041058     4.7     4.8
    5******************-232.5972394533466     4.7     4.8
 MICROCYCLE DIIS UPDATE:                    5                    5
    6   2.2282731874440  -0.7591024301733     4.7     4.8
    7   2.5672436163183  -0.0634410204417     4.7     4.8
    8   2.9687657795267  -1.7514423449720     4.7     4.8
    9   4.8944030625693   0.9788745355015     4.7     4.8
   10  11.2136955816691  -4.1419416656173     4.7     4.8
 MICROCYCLE DIIS UPDATE:                   10                    5
   11   0.4933644600098  -0.6883224472638     4.7     4.8
   12   0.6753516616131  -0.4411723745041     4.7     4.8
   13   1.0057719773747  -0.9774512622462     4.7     4.8
   14   1.8060623803499  -0.0456059046158     4.7     4.8
   15   3.0563697929958  -1.8496636845697     4.7     4.8
 MICROCYCLE DIIS UPDATE:                   15                    5
   16   0.2530454145031  -0.6631135495599     4.7     4.8
   17   0.3544438524710  -0.5657473443358     5.2     5.3
   18   0.4942759327219  -0.8080437568938     4.5     4.7
   19   0.7826782210819  -0.4131048900508     4.6     4.7
   20   1.4204100650178  -1.1865872279202     4.6     4.7
 MICROCYCLE DIIS UPDATE:                   20                    5
   21   0.1719334638868  -0.6839087437496     4.6     4.7
   22   0.2309804794997  -0.6537120291353     4.6     4.7
   23   0.2866920998742  -0.7750620594961     4.6     4.7
   24   0.3573828025051  -0.6094945855677     4.6     4.7
   25   0.6569289041791  -0.9501837846522     4.6     4.7
 MICROCYCLE DIIS UPDATE:                   25                    5
   26   0.1315636260991  -0.7537232009652     4.6     4.7
   27   0.1541107187646  -0.7571313989326     4.6     4.7
   28   0.1554965894356  -0.8093578743605     4.6     4.7
   29   0.1402701548229  -0.7574719944400     4.6     4.7
   30   0.2467337078113  -0.8757337976060     4.6     4.7
 MICROCYCLE DIIS UPDATE:                   30                    5
   31   0.0591193508027  -0.8575255589327     4.6     4.7
   32   0.0495464113256  -0.8780728471322     4.6     4.7
   33   0.0848299145464  -0.8365613399432     4.6     4.7
   34   0.1046563006252  -0.8914578720430     4.6     4.7
   35   0.1540274354971  -0.8140326629898     4.6     4.7
 MICROCYCLE DIIS UPDATE:                   35                    5
   36   0.0074812483089  -0.8578007228974     4.6     4.7
   37   0.0061450518684  -0.8579684069049     4.6     4.7
   38   0.0053210907954  -0.8566207182343     4.6     4.7
   39   0.0037375068630  -0.8565823103708     4.6     4.7
   40   0.0035281742715  -0.8566981542341     4.6     4.7
 MICROCYCLE DIIS UPDATE:                   40                    5
   41   0.0013087035560  -0.8560256147278     4.6     4.7
   42   0.0010437730920  -0.8557299845192     4.6     4.7
   43   0.0006813399409  -0.8558420443297     4.6     4.7
   44   0.0007840640029  -0.8556872077417     4.6     4.7
   45   0.0007233558798  -0.8556371872656     4.6     4.7
 MICROCYCLE DIIS UPDATE:                   45                    5
   46   0.0000994187900  -0.8556125054252     4.6     4.7
   47   0.0000591956755  -0.8556147225168     4.6     4.7
   48   0.0000642103526  -0.8555937585781     4.6     4.7
   49   0.0000517067838  -0.8556161667632     4.6     4.7
   50   0.0000965774705  -0.8555715494482     4.6     4.7
 MICROCYCLE DIIS UPDATE:                   50                    5
   51   0.0000215946201  -0.8555941947325     4.6     4.7
   52   0.0000138790737  -0.8555928015723     4.6     4.7
   53   0.0000126953214  -0.8555935397310     4.6     4.7
   54   0.0000156466281  -0.8555879338956     4.6     4.7
   55   0.0000187656893  -0.8555959785899     4.6     4.7
 MICROCYCLE DIIS UPDATE:                   55                    5
   56   0.0000013254217  -0.8555889211739     4.6     4.7
   57   0.0000006442334  -0.8555889773718     4.6     4.7
   58   0.0000007388757  -0.8555887209271     4.6     4.7
   59   0.0000008512191  -0.8555890819761     4.6     4.7
   60   0.0000014107125  -0.8555884205794     4.6     4.7
 MICROCYCLE DIIS UPDATE:                   60                    5
   61   0.0000002358107  -0.8555888058980     4.6     4.7
   62   0.0000001459669  -0.8555887925802     4.6     4.7
   63   0.0000001191719  -0.8555887890461     4.7     4.8
   64   0.0000001098400  -0.8555887564574     6.0     6.2
   65   0.0000001010291  -0.8555887928776     4.7     4.8
 MICROCYCLE DIIS UPDATE:                   65                    5
   66   0.0000000146646  -0.8555887479133     4.7     4.8
 --------------------------------------------------------
 Iterations converged
 CCSDT correlation energy / hartree =        -0.855588747913274
 CCSDT total energy / hartree       =      -109.082503269577401

 Singles contributions

 Doubles contributions
     8a   (alpha)     9a   (alpha) ---     6a   (alpha)     7a   (alpha)        0.1810301704
     8a   (alpha)     9a   (alpha) ---     7a   (alpha)     6a   (alpha)       -0.1810301704
     8a   (alpha)    10a   (alpha) ---     5a   (alpha)     6a   (alpha)       -0.1451034872
     8a   (alpha)    10a   (alpha) ---     6a   (alpha)     5a   (alpha)        0.1451034872
     9a   (alpha)     8a   (alpha) ---     6a   (alpha)     7a   (alpha)       -0.1810301706
     9a   (alpha)     8a   (alpha) ---     7a   (alpha)     6a   (alpha)        0.1810301706
     9a   (alpha)    10a   (alpha) ---     5a   (alpha)     7a   (alpha)       -0.1451034872
     9a   (alpha)    10a   (alpha) ---     7a   (alpha)     5a   (alpha)        0.1451034872
    10a   (alpha)     8a   (alpha) ---     5a   (alpha)     6a   (alpha)        0.1451034872
    10a   (alpha)     8a   (alpha) ---     6a   (alpha)     5a   (alpha)       -0.1451034872
    10a   (alpha)     9a   (alpha) ---     5a   (alpha)     7a   (alpha)        0.1451034872
    10a   (alpha)     9a   (alpha) ---     7a   (alpha)     5a   (alpha)       -0.1451034872
     8a   (alpha)     8a   (beta ) ---     6a   (alpha)     6a   (beta )       -0.7794574518
     8a   (alpha)     8a   (beta ) ---     6a   (alpha)     7a   (beta )       -0.2049084083
     8a   (alpha)     8a   (beta ) ---     7a   (alpha)     6a   (beta )       -0.2049084083
     8a   (alpha)     9a   (beta ) ---     6a   (alpha)     6a   (beta )        0.2049084083
     8a   (alpha)     9a   (beta ) ---     6a   (alpha)     7a   (beta )       -0.2608001432
     8a   (alpha)     9a   (beta ) ---     7a   (alpha)     6a   (beta )       -0.4418303137
     8a   (alpha)     9a   (beta ) ---     7a   (alpha)     7a   (beta )       -0.2049084083
     8a   (alpha)    10a   (beta ) ---     5a   (alpha)     6a   (beta )       -0.3676102224
     8a   (alpha)    10a   (beta ) ---     6a   (alpha)     5a   (beta )       -0.2225067352
     9a   (alpha)     8a   (beta ) ---     6a   (alpha)     6a   (beta )        0.2049084083
     9a   (alpha)     8a   (beta ) ---     6a   (alpha)     7a   (beta )       -0.4418303137
     9a   (alpha)     8a   (beta ) ---     7a   (alpha)     6a   (beta )       -0.2608001432
     9a   (alpha)     8a   (beta ) ---     7a   (alpha)     7a   (beta )       -0.2049084083
     9a   (alpha)     9a   (beta ) ---     6a   (alpha)     7a   (beta )        0.2049084083
     9a   (alpha)     9a   (beta ) ---     7a   (alpha)     6a   (beta )        0.2049084083
     9a   (alpha)     9a   (beta ) ---     7a   (alpha)     7a   (beta )       -0.7794574517
     9a   (alpha)    10a   (beta ) ---     5a   (alpha)     7a   (beta )       -0.3676102224
     9a   (alpha)    10a   (beta ) ---     7a   (alpha)     5a   (beta )       -0.2225067352
    10a   (alpha)     8a   (beta ) ---     5a   (alpha)     6a   (beta )       -0.2225067352
    10a   (alpha)     8a   (beta ) ---     6a   (alpha)     5a   (beta )       -0.3676102224
    10a   (alpha)     9a   (beta ) ---     5a   (alpha)     7a   (beta )       -0.2225067352
    10a   (alpha)     9a   (beta ) ---     7a   (alpha)     5a   (beta )       -0.3676102224
    10a   (alpha)    10a   (beta ) ---     5a   (alpha)     5a   (beta )       -0.5289518343

 Task  times  cpu:      319.5s     wall:      327.9s


                                NWChem Input Module
                                -------------------


 Summary of allocated global arrays
-----------------------------------
  No active global arrays



                         GA Statistics for process    0
                         ------------------------------

       create   destroy   get      put      acc     scatter   gather  read&inc
calls: 1.55e+04 1.55e+04 1.49e+06 2.09e+04 4.47e+05  489        0     9.51e+05 
number of processes/call -4.65e+12 2.69e+14 5.32e+12 0.00e+00 0.00e+00
bytes total:             4.68e+11 8.22e+09 2.15e+11 4.76e+05 0.00e+00 7.61e+06
bytes remote:            0.00e+00 0.00e+00 0.00e+00 0.00e+00 0.00e+00 0.00e+00
Max memory consumed for GA by this process: 752806824 bytes

MA_summarize_allocated_blocks: starting scan ...
MA_summarize_allocated_blocks: scan completed: 0 heap blocks, 0 stack blocks
MA usage statistics:

	allocation statistics:
					      heap	     stack
					      ----	     -----
	current number of blocks	         0	         0
	maximum number of blocks	        17	        27
	current total bytes		         0	         0
	maximum total bytes		     80152	  37998616
	maximum total K-bytes		        81	     37999
	maximum total M-bytes		         1	        38


                                     CITATION
                                     --------
                Please cite the following reference when publishing
                           results obtained with NWChem:

          E. Apr, E. J. Bylaska, W. A. de Jong, N. Govind, K. Kowalski,
       T. P. Straatsma, M. Valiev, H. J. J. van Dam, Y. Alexeev, J. Anchell,
       V. Anisimov, F. W. Aquino, R. Atta-Fynn, J. Autschbach, N. P. Bauman,
     J. C. Becca, D. E. Bernholdt, K. Bhaskaran-Nair, S. Bogatko, P. Borowski,
        J. Boschen, J. Brabec, A. Bruner, E. Caut, Y. Chen, G. N. Chuev,
      C. J. Cramer, J. Daily, M. J. O. Deegan, T. H. Dunning Jr., M. Dupuis,
   K. G. Dyall, G. I. Fann, S. A. Fischer, A. Fonari, H. Frchtl, L. Gagliardi,
      J. Garza, N. Gawande, S. Ghosh, K. Glaesemann, A. W. Gtz, J. Hammond,
       V. Helms, E. D. Hermes, K. Hirao, S. Hirata, M. Jacquelin, L. Jensen,
   B. G. Johnson, H. Jnsson, R. A. Kendall, M. Klemm, R. Kobayashi, V. Konkov,
      S. Krishnamoorthy, M. Krishnan, Z. Lin, R. D. Lins, R. J. Littlefield,
      A. J. Logsdail, K. Lopata, W. Ma, A. V. Marenich, J. Martin del Campo,
   D. Mejia-Rodriguez, J. E. Moore, J. M. Mullin, T. Nakajima, D. R. Nascimento,
    J. A. Nichols, P. J. Nichols, J. Nieplocha, A. Otero-de-la-Roza, B. Palmer,
    A. Panyala, T. Pirojsirikul, B. Peng, R. Peverati, J. Pittner, L. Pollack,
   R. M. Richard, P. Sadayappan, G. C. Schatz, W. A. Shelton, D. W. Silverstein,
   D. M. A. Smith, T. A. Soares, D. Song, M. Swart, H. L. Taylor, G. S. Thomas,
            V. Tipparaju, D. G. Truhlar, K. Tsemekhman, T. Van Voorhis,
     . Vzquez-Mayagoitia, P. Verma, O. Villa, A. Vishnu, K. D. Vogiatzis,
        D. Wang, J. H. Weare, M. J. Williamson, T. L. Windus, K. Woliski,
        A. T. Wong, Q. Wu, C. Yang, Q. Yu, M. Zacharias, Z. Zhang, Y. Zhao,
                                and R. J. Harrison
                        "NWChem: Past, present, and future
                         J. Chem. Phys. 152, 184102 (2020)
                               doi:10.1063/5.0004997

                                      AUTHORS
                                      -------
     E. Apra, E. J. Bylaska, N. Govind, K. Kowalski, M. Valiev, W. A. de Jong,
      T. P. Straatsma, H. J. J. van Dam, D. Wang, T. L. Windus, N. P. Bauman,
       A. Panyala, J. Hammond, J. Autschbach, K. Bhaskaran-Nair, J. Brabec,
    K. Lopata, S. A. Fischer, S. Krishnamoorthy, M. Jacquelin, W. Ma, M. Klemm,
       O. Villa, Y. Chen, V. Anisimov, F. Aquino, S. Hirata, M. T. Hackler,
           Eric Hermes, L. Jensen, J. E. Moore, J. C. Becca, V. Konjkov,
            D. Mejia-Rodriguez, T. Risthaus, M. Malagoli, A. Marenich,
   A. Otero-de-la-Roza, J. Mullin, P. Nichols, R. Peverati, J. Pittner, Y. Zhao,
        P.-D. Fan, A. Fonari, M. J. Williamson, R. J. Harrison, J. R. Rehr,
      M. Dupuis, D. Silverstein, D. M. A. Smith, J. Nieplocha, V. Tipparaju,
      M. Krishnan, B. E. Van Kuiken, A. Vazquez-Mayagoitia, M. Swart, Q. Wu,
   T. Van Voorhis, A. A. Auer, M. Nooijen, L. D. Crosby, E. Brown, G. Cisneros,
     G. I. Fann, H. Fruchtl, J. Garza, K. Hirao, R. A. Kendall, J. A. Nichols,
       K. Tsemekhman, K. Wolinski, J. Anchell, D. E. Bernholdt, P. Borowski,
       T. Clark, D. Clerc, H. Dachsel, M. J. O. Deegan, K. Dyall, D. Elwood,
      E. Glendening, M. Gutowski, A. C. Hess, J. Jaffe, B. G. Johnson, J. Ju,
        R. Kobayashi, R. Kutteh, Z. Lin, R. Littlefield, X. Long, B. Meng,
      T. Nakajima, S. Niu, L. Pollack, M. Rosing, K. Glaesemann, G. Sandrone,
      M. Stave, H. Taylor, G. Thomas, J. H. van Lenthe, A. T. Wong, Z. Zhang.

 Total times  cpu:      320.8s     wall:      329.4s
