nohup: ignoring input
 argument  1 = test1_mcscf_1re.nw
  NWChem w/ OpenMP: maximum threads =    1



============================== echo of input deck ==============================
start tce_n2_1re

echo

geometry units bohr
  symmetry c1
  n 0 0   -1.034
  n 0 0    1.034
end

basis
 * library cc-pvdz
end

mcscf
  active  6
  actelec 6
  multiplicity 1
end

task mcscf

scf
thresh 1.0e-10
tol2e 1.0e-10
singlet
rhf
noscf
end

tce
ccsd
end

task tce energy

================================================================================


                                         
                                         


             Northwest Computational Chemistry Package (NWChem) 7.0.1
             --------------------------------------------------------


                    Environmental Molecular Sciences Laboratory
                       Pacific Northwest National Laboratory
                                Richland, WA 99352

                              Copyright (c) 1994-2020
                       Pacific Northwest National Laboratory
                            Battelle Memorial Institute

             NWChem is an open-source computational chemistry package
                        distributed under the terms of the
                      Educational Community License (ECL) 2.0
             A copy of the license is included with this distribution
                              in the LICENSE.TXT file

                                  ACKNOWLEDGMENT
                                  --------------

            This software and its documentation were developed at the
            EMSL at Pacific Northwest National Laboratory, a multiprogram
            national laboratory, operated for the U.S. Department of Energy
            by Battelle under Contract Number DE-AC05-76RL01830. Support
            for this work was provided by the Department of Energy Office
            of Biological and Environmental Research, Office of Basic
            Energy Sciences, and the Office of Advanced Scientific Computing.


           Job information
           ---------------

    hostname        = koothan
    program         = /hpc/home/kowalski/nwchem/bin/LINUX64/nwchem
    date            = Wed Apr  7 16:03:47 2021

    compiled        = Sun_Jan_17_18:37:55_2021
    source          = /hpc/home/kowalski/nwchem
    nwchem branch   = 7.0.0
    nwchem revision = nwchem_on_git-2069-ga5c152f2d
    ga revision     = 5.8.0
    use scalapack   = T
    input           = test1_mcscf_1re.nw
    prefix          = tce_n2_1re.
    data base       = ./tce_n2_1re.db
    status          = startup
    nproc           =        1
    time left       =     -1s



           Memory information
           ------------------

    heap     =   13107200 doubles =    100.0 Mbytes
    stack    =   13107197 doubles =    100.0 Mbytes
    global   =   26214400 doubles =    200.0 Mbytes (distinct from heap & stack)
    total    =   52428797 doubles =    400.0 Mbytes
    verify   = yes
    hardfail = no 


           Directory information
           ---------------------

  0 permanent = .
  0 scratch   = .




                                NWChem Input Module
                                -------------------


 Turning off AUTOSYM since
 SYMMETRY directive was detected!


          ------
          auto-z
          ------
  no constraints, skipping    0.0000000000000000     
  no constraints, skipping    0.0000000000000000     


                             Geometry "geometry" -> ""
                             -------------------------

 Output coordinates in a.u. (scale by  1.000000000 to convert to a.u.)

  No.       Tag          Charge          X              Y              Z
 ---- ---------------- ---------- -------------- -------------- --------------
    1 n                    7.0000     0.00000000     0.00000000    -1.03400000
    2 n                    7.0000     0.00000000     0.00000000     1.03400000

      Atomic Mass 
      ----------- 

      n                 14.003070


 Effective nuclear repulsion energy (a.u.)      23.6943907157

            Nuclear Dipole moment (a.u.) 
            ----------------------------
        X                 Y               Z
 ---------------- ---------------- ----------------
     0.0000000000     0.0000000000     0.0000000000



                                Z-matrix (autoz)
                                -------- 

 Units are Angstrom for bonds and degrees for angles

      Type          Name      I     J     K     L     M      Value
      ----------- --------  ----- ----- ----- ----- ----- ----------
    1 Stretch                  1     2                       1.09434


            XYZ format geometry
            -------------------
     2
 geometry
 n                     0.00000000     0.00000000    -0.54716928
 n                     0.00000000     0.00000000     0.54716928

 ==============================================================================
                                internuclear distances
 ------------------------------------------------------------------------------
       center one      |      center two      | atomic units |       a.u.
 ------------------------------------------------------------------------------
    2 n                |   1 n                |     2.06800  |     2.06800
 ------------------------------------------------------------------------------
                         number of included internuclear distances:          1
 ==============================================================================





 Summary of "ao basis" -> "" (cartesian)
 ------------------------------------------------------------------------------
       Tag                 Description            Shells   Functions and Types
 ---------------- ------------------------------  ------  ---------------------
 *                          cc-pvdz                   on all atoms 


                      Basis "ao basis" -> "ao basis" (cartesian)
                      -----
  n (Nitrogen)
  ------------
            Exponent  Coefficients 
       -------------- ---------------------------------------------------------
  1 S  9.04600000E+03  0.000700
  1 S  1.35700000E+03  0.005389
  1 S  3.09300000E+02  0.027406
  1 S  8.77300000E+01  0.103207
  1 S  2.85600000E+01  0.278723
  1 S  1.02100000E+01  0.448540
  1 S  3.83800000E+00  0.278238
  1 S  7.46600000E-01  0.015440

  2 S  9.04600000E+03 -0.000153
  2 S  1.35700000E+03 -0.001208
  2 S  3.09300000E+02 -0.005992
  2 S  8.77300000E+01 -0.024544
  2 S  2.85600000E+01 -0.067459
  2 S  1.02100000E+01 -0.158078
  2 S  3.83800000E+00 -0.121831
  2 S  7.46600000E-01  0.549003

  3 S  2.24800000E-01  1.000000

  4 P  1.35500000E+01  0.039919
  4 P  2.91700000E+00  0.217169
  4 P  7.97300000E-01  0.510319

  5 P  2.18500000E-01  1.000000

  6 D  8.17000000E-01  1.000000



 Summary of "ao basis" -> "ao basis" (cartesian)
 ------------------------------------------------------------------------------
       Tag                 Description            Shells   Functions and Types
 ---------------- ------------------------------  ------  ---------------------
 n                          cc-pvdz                  6       15   3s2p1d



                            NWChem Direct MCSCF Module
                            --------------------------


     -----------------------------------
       Basis functions:             30
       Inactive shells:              4
       Active shells:                6
       Active electrons:             6
       Symmetry:                    a       
       Multiplicity:                 1
       Orbital rotations:          224
     -----------------------------------

     -----------------------------------
       E2 extrapolation:             F
       Conjugacy:                    T
       Micro CI relax:               T
       Canonical orbitals:           T
       Maximum iterations:          20
       Converge threshold:    1.00E-04
       Conjugacy resets:            20
       Initial levelshift:        0.10
     -----------------------------------

      Superposition of Atomic Density Guess
      -------------------------------------

 Sum of atomic energies:        -108.60004629

      Non-variational initial energy
      ------------------------------

 Total energy =    -109.123177
 1-e energy   =    -194.140722
 2-e energy   =      61.323154
 HOMO         =      -0.418440
 LUMO         =       0.037253


   input molecular orbitals = atomic
  output molecular orbtials = ./tce_n2_1re.movecs

       No. of determinants:           400


  Starting Orbital Energies
   -15.748042   -15.742107    -1.746080    -0.714850    -0.526218    -0.526218
    -0.418440     0.037253     0.037253     0.551652     0.801219     0.867975
     0.867975     0.873168     1.014433     1.014433     1.062790     1.546318
     1.751684     1.751684     1.852919     1.852919     2.279781     2.279781
     2.769448     2.964010     2.964010     3.226911     3.826898     4.178449

  Orbital Symmetry Irreps
a    a    a    a    a    a    a    a    a    a    a    a    a    a    a   
a    a    a    a    a    a    a    a    a    a    a    a    a    a    a   
    0 shell      1 out of     12 in             0.24 secs
    0 shell      2 out of     12 in             0.24 secs
    0 shell      3 out of     12 in             0.25 secs
    0 shell      4 out of     12 in             0.26 secs
    0 shell      5 out of     12 in             0.26 secs
    0 shell      6 out of     12 in             0.27 secs
    0 shell      7 out of     12 in             0.27 secs
    0 shell      8 out of     12 in             0.29 secs
    0 shell      9 out of     12 in             0.31 secs
    0 shell     10 out of     12 in             0.33 secs
    0 shell     11 out of     12 in             0.35 secs
    0 shell     12 out of     12 in             0.36 secs



          %%%%% MacroIteration   1 %%%%%


          Number of sigma calls:        9
                       o<<<<< (aa):             0.00
                       o<<<<< (bb):             0.00
                       o<<<<< (ab):             0.00
                       o<<<<< (total)           0.00
                       o<<<<< (aa) ff           0.00
                       o<<<<< (aa) gop          0.00
                       o<<<<< (aa) dot          0.00
                       o<<<<< (ab) str          0.00
                       o<<<<< (ab) gath         0.00
                       o<<<<< (ab) dotab        0.00
                       o<<<<< (ab) scat         0.00
                       o<<<<< (ab) sync         0.00
                       o<<<<< Density           0.00
                       o<<<<< Density one       0.00
                       o<<<<< Density two       0.00
                       o<<<<< Density ab        0.00
                       o<<<<< Spin adapt        0.00
                       o<<<<< Symm adapt        0.00

                       o<<<<< (ab) max sync:      0.00

           >>>| Valence CI:            -11.584379020759
           >>>| MCSCF energy:         -109.020404754909
           >>>| Gradient norm:          0.426285862D+00

                              ----- Line search ------

        step       energy         lsg     num-lsg   num-lsh   lsrat    time
      ------- ---------------- --------- --------- --------- ------- --------
       0.0000    -109.02040475 -4.93D-02  0.00D+00  0.00D+00 0.0D+00      0.5
    0 shell      1 out of     12 in             0.64 secs
    0 shell      2 out of     12 in             0.64 secs
    0 shell      3 out of     12 in             0.64 secs
    0 shell      4 out of     12 in             0.64 secs
    0 shell      5 out of     12 in             0.65 secs
    0 shell      6 out of     12 in             0.65 secs
    0 shell      7 out of     12 in             0.65 secs
    0 shell      8 out of     12 in             0.65 secs
    0 shell      9 out of     12 in             0.65 secs
    0 shell     10 out of     12 in             0.65 secs
    0 shell     11 out of     12 in             0.65 secs
    0 shell     12 out of     12 in             0.65 secs

          Number of sigma calls:       10
                       o<<<<< (aa):             0.00
                       o<<<<< (bb):             0.00
                       o<<<<< (ab):             0.00
                       o<<<<< (total)           0.00
                       o<<<<< (aa) ff           0.00
                       o<<<<< (aa) gop          0.00
                       o<<<<< (aa) dot          0.00
                       o<<<<< (ab) str          0.00
                       o<<<<< (ab) gath         0.00
                       o<<<<< (ab) dotab        0.00
                       o<<<<< (ab) scat         0.00
                       o<<<<< (ab) sync         0.00
                       o<<<<< Density           0.00
                       o<<<<< Density one       0.00
                       o<<<<< Density two       0.00
                       o<<<<< Density ab        0.00
                       o<<<<< Spin adapt        0.00
                       o<<<<< Symm adapt        0.00

                       o<<<<< (ab) max sync:      0.00
       1.0000    -109.05014227 -8.80D-03 -9.51D-03  4.05D-02 1.8D-01      0.6
    0 shell      1 out of     12 in             0.71 secs
    0 shell      2 out of     12 in             0.71 secs
    0 shell      3 out of     12 in             0.71 secs
    0 shell      4 out of     12 in             0.71 secs
    0 shell      5 out of     12 in             0.71 secs
    0 shell      6 out of     12 in             0.71 secs
    0 shell      7 out of     12 in             0.71 secs
    0 shell      8 out of     12 in             0.72 secs
    0 shell      9 out of     12 in             0.72 secs
    0 shell     10 out of     12 in             0.72 secs
    0 shell     11 out of     12 in             0.72 secs
    0 shell     12 out of     12 in             0.72 secs

          Number of sigma calls:        9
                       o<<<<< (aa):             0.00
                       o<<<<< (bb):             0.00
                       o<<<<< (ab):             0.00
                       o<<<<< (total)           0.00
                       o<<<<< (aa) ff           0.00
                       o<<<<< (aa) gop          0.00
                       o<<<<< (aa) dot          0.00
                       o<<<<< (ab) str          0.00
                       o<<<<< (ab) gath         0.00
                       o<<<<< (ab) dotab        0.00
                       o<<<<< (ab) scat         0.00
                       o<<<<< (ab) sync         0.00
                       o<<<<< Density           0.00
                       o<<<<< Density one       0.00
                       o<<<<< Density two       0.00
                       o<<<<< Density ab        0.00
                       o<<<<< Spin adapt        0.00
                       o<<<<< Symm adapt        0.00

                       o<<<<< (ab) max sync:      0.00
       1.2175    -109.05104890  4.30D-04  4.46D-04  4.24D-02 8.7D-03      0.7
     --- Orbitals canonicalized ---
    0 shell      1 out of     12 in             0.78 secs
    0 shell      2 out of     12 in             0.78 secs
    0 shell      3 out of     12 in             0.78 secs
    0 shell      4 out of     12 in             0.78 secs
    0 shell      5 out of     12 in             0.78 secs
    0 shell      6 out of     12 in             0.78 secs
    0 shell      7 out of     12 in             0.78 secs
    0 shell      8 out of     12 in             0.78 secs
    0 shell      9 out of     12 in             0.79 secs
    0 shell     10 out of     12 in             0.79 secs
    0 shell     11 out of     12 in             0.79 secs
    0 shell     12 out of     12 in             0.79 secs



          %%%%% MacroIteration   2 %%%%%


          Number of sigma calls:       11
                       o<<<<< (aa):             0.00
                       o<<<<< (bb):             0.00
                       o<<<<< (ab):             0.00
                       o<<<<< (total)           0.00
                       o<<<<< (aa) ff           0.00
                       o<<<<< (aa) gop          0.00
                       o<<<<< (aa) dot          0.00
                       o<<<<< (ab) str          0.00
                       o<<<<< (ab) gath         0.00
                       o<<<<< (ab) dotab        0.00
                       o<<<<< (ab) scat         0.00
                       o<<<<< (ab) sync         0.00
                       o<<<<< Density           0.00
                       o<<<<< Density one       0.00
                       o<<<<< Density two       0.00
                       o<<<<< Density ab        0.00
                       o<<<<< Spin adapt        0.00
                       o<<<<< Symm adapt        0.00

                       o<<<<< (ab) max sync:      0.00

           >>>| Valence CI:            -11.644025344580
           >>>| MCSCF energy:         -109.051048903280
           >>>| Gradient norm:          0.883302907D-01
     --- Warning:   20 Hessian diagonals < 0.05 ---
     --- Conjugacy reset ---

                              ----- Line search ------

        step       energy         lsg     num-lsg   num-lsh   lsrat    time
      ------- ---------------- --------- --------- --------- ------- --------
       0.0000    -109.05104890 -1.67D-02  0.00D+00  0.00D+00 0.0D+00      1.1
    0 shell      1 out of     12 in             1.21 secs
    0 shell      2 out of     12 in             1.21 secs
    0 shell      3 out of     12 in             1.21 secs
    0 shell      4 out of     12 in             1.21 secs
    0 shell      5 out of     12 in             1.21 secs
    0 shell      6 out of     12 in             1.22 secs
    0 shell      7 out of     12 in             1.22 secs
    0 shell      8 out of     12 in             1.22 secs
    0 shell      9 out of     12 in             1.22 secs
    0 shell     10 out of     12 in             1.22 secs
    0 shell     11 out of     12 in             1.22 secs
    0 shell     12 out of     12 in             1.22 secs

          Number of sigma calls:       15
                       o<<<<< (aa):             0.00
                       o<<<<< (bb):             0.00
                       o<<<<< (ab):             0.00
                       o<<<<< (total)           0.00
                       o<<<<< (aa) ff           0.00
                       o<<<<< (aa) gop          0.00
                       o<<<<< (aa) dot          0.00
                       o<<<<< (ab) str          0.00
                       o<<<<< (ab) gath         0.00
                       o<<<<< (ab) dotab        0.00
                       o<<<<< (ab) scat         0.00
                       o<<<<< (ab) sync         0.00
                       o<<<<< Density           0.00
                       o<<<<< Density one       0.00
                       o<<<<< Density two       0.00
                       o<<<<< Density ab        0.00
                       o<<<<< Spin adapt        0.00
                       o<<<<< Symm adapt        0.00

                       o<<<<< (ab) max sync:      0.00
       1.0000    -109.08211626 -2.39D-02 -3.47D-02 -7.19D-03 1.4D+00      1.2
                     Negative curvature: hessian=-7.19D-03
    0 shell      1 out of     12 in             1.28 secs
    0 shell      2 out of     12 in             1.28 secs
    0 shell      3 out of     12 in             1.28 secs
    0 shell      4 out of     12 in             1.28 secs
    0 shell      5 out of     12 in             1.28 secs
    0 shell      6 out of     12 in             1.29 secs
    0 shell      7 out of     12 in             1.29 secs
    0 shell      8 out of     12 in             1.29 secs
    0 shell      9 out of     12 in             1.29 secs
    0 shell     10 out of     12 in             1.29 secs
    0 shell     11 out of     12 in             1.29 secs
    0 shell     12 out of     12 in             1.29 secs

          Number of sigma calls:       15
                       o<<<<< (aa):             0.00
                       o<<<<< (bb):             0.00
                       o<<<<< (ab):             0.00
                       o<<<<< (total)           0.00
                       o<<<<< (aa) ff           0.00
                       o<<<<< (aa) gop          0.00
                       o<<<<< (aa) dot          0.00
                       o<<<<< (ab) str          0.00
                       o<<<<< (ab) gath         0.00
                       o<<<<< (ab) dotab        0.00
                       o<<<<< (ab) scat         0.00
                       o<<<<< (ab) sync         0.00
                       o<<<<< Density           0.00
                       o<<<<< Density one       0.00
                       o<<<<< Density two       0.00
                       o<<<<< Density ab        0.00
                       o<<<<< Spin adapt        0.00
                       o<<<<< Symm adapt        0.00

                       o<<<<< (ab) max sync:      0.00
       1.5010    -109.08570712  1.09D-02  1.02D-02  6.94D-02 6.6D-01      1.2
    0 shell      1 out of     12 in             1.35 secs
    0 shell      2 out of     12 in             1.35 secs
    0 shell      3 out of     12 in             1.35 secs
    0 shell      4 out of     12 in             1.35 secs
    0 shell      5 out of     12 in             1.35 secs
    0 shell      6 out of     12 in             1.36 secs
    0 shell      7 out of     12 in             1.36 secs
    0 shell      8 out of     12 in             1.36 secs
    0 shell      9 out of     12 in             1.36 secs
    0 shell     10 out of     12 in             1.36 secs
    0 shell     11 out of     12 in             1.36 secs
    0 shell     12 out of     12 in             1.36 secs

          Number of sigma calls:       14
                       o<<<<< (aa):             0.00
                       o<<<<< (bb):             0.00
                       o<<<<< (ab):             0.00
                       o<<<<< (total)           0.00
                       o<<<<< (aa) ff           0.00
                       o<<<<< (aa) gop          0.00
                       o<<<<< (aa) dot          0.00
                       o<<<<< (ab) str          0.00
                       o<<<<< (ab) gath         0.00
                       o<<<<< (ab) dotab        0.00
                       o<<<<< (ab) scat         0.00
                       o<<<<< (ab) sync         0.00
                       o<<<<< Density           0.00
                       o<<<<< Density one       0.00
                       o<<<<< Density two       0.00
                       o<<<<< Density ab        0.00
                       o<<<<< Spin adapt        0.00
                       o<<<<< Symm adapt        0.00

                       o<<<<< (ab) max sync:      0.00
       1.3437    -109.08651598 -6.87D-04 -6.63D-04  7.38D-02 4.1D-02      1.3



          %%%%% MacroIteration   3 %%%%%


          Number of sigma calls:        1
                       o<<<<< (aa):             0.00
                       o<<<<< (bb):             0.00
                       o<<<<< (ab):             0.00
                       o<<<<< (total)           0.00
                       o<<<<< (aa) ff           0.00
                       o<<<<< (aa) gop          0.00
                       o<<<<< (aa) dot          0.00
                       o<<<<< (ab) str          0.00
                       o<<<<< (ab) gath         0.00
                       o<<<<< (ab) dotab        0.00
                       o<<<<< (ab) scat         0.00
                       o<<<<< (ab) sync         0.00
                       o<<<<< Density           0.00
                       o<<<<< Density one       0.00
                       o<<<<< Density two       0.00
                       o<<<<< Density ab        0.00
                       o<<<<< Spin adapt        0.00
                       o<<<<< Symm adapt        0.00

                       o<<<<< (ab) max sync:      0.00

           >>>| Valence CI:            -12.775524478149
           >>>| MCSCF energy:         -109.086515975361
           >>>| Gradient norm:          0.701323506D-01
     --- Warning:    4 Hessian diagonals < 0.05 ---

                              ----- Line search ------

        step       energy         lsg     num-lsg   num-lsh   lsrat    time
      ------- ---------------- --------- --------- --------- ------- --------
       0.0000    -109.08651598 -5.27D-03  0.00D+00  0.00D+00 0.0D+00      1.6
    0 shell      1 out of     12 in             1.70 secs
    0 shell      2 out of     12 in             1.70 secs
    0 shell      3 out of     12 in             1.70 secs
    0 shell      4 out of     12 in             1.70 secs
    0 shell      5 out of     12 in             1.70 secs
    0 shell      6 out of     12 in             1.70 secs
    0 shell      7 out of     12 in             1.70 secs
    0 shell      8 out of     12 in             1.70 secs
    0 shell      9 out of     12 in             1.71 secs
    0 shell     10 out of     12 in             1.71 secs
    0 shell     11 out of     12 in             1.71 secs
    0 shell     12 out of     12 in             1.71 secs

          Number of sigma calls:       13
                       o<<<<< (aa):             0.00
                       o<<<<< (bb):             0.00
                       o<<<<< (ab):             0.00
                       o<<<<< (total)           0.00
                       o<<<<< (aa) ff           0.00
                       o<<<<< (aa) gop          0.00
                       o<<<<< (aa) dot          0.00
                       o<<<<< (ab) str          0.00
                       o<<<<< (ab) gath         0.00
                       o<<<<< (ab) dotab        0.00
                       o<<<<< (ab) scat         0.00
                       o<<<<< (ab) sync         0.00
                       o<<<<< Density           0.00
                       o<<<<< Density one       0.00
                       o<<<<< Density two       0.00
                       o<<<<< Density ab        0.00
                       o<<<<< Spin adapt        0.00
                       o<<<<< Symm adapt        0.00

                       o<<<<< (ab) max sync:      0.00
       1.0000    -109.08991170 -1.34D-03 -1.43D-03  3.92D-03 2.6D-01      1.6
    0 shell      1 out of     12 in             1.77 secs
    0 shell      2 out of     12 in             1.77 secs
    0 shell      3 out of     12 in             1.77 secs
    0 shell      4 out of     12 in             1.77 secs
    0 shell      5 out of     12 in             1.77 secs
    0 shell      6 out of     12 in             1.77 secs
    0 shell      7 out of     12 in             1.77 secs
    0 shell      8 out of     12 in             1.77 secs
    0 shell      9 out of     12 in             1.78 secs
    0 shell     10 out of     12 in             1.78 secs
    0 shell     11 out of     12 in             1.78 secs
    0 shell     12 out of     12 in             1.78 secs

          Number of sigma calls:       12
                       o<<<<< (aa):             0.00
                       o<<<<< (bb):             0.00
                       o<<<<< (ab):             0.00
                       o<<<<< (total)           0.00
                       o<<<<< (aa) ff           0.00
                       o<<<<< (aa) gop          0.00
                       o<<<<< (aa) dot          0.00
                       o<<<<< (ab) str          0.00
                       o<<<<< (ab) gath         0.00
                       o<<<<< (ab) dotab        0.00
                       o<<<<< (ab) scat         0.00
                       o<<<<< (ab) sync         0.00
                       o<<<<< Density           0.00
                       o<<<<< Density one       0.00
                       o<<<<< Density two       0.00
                       o<<<<< Density ab        0.00
                       o<<<<< Spin adapt        0.00
                       o<<<<< Symm adapt        0.00

                       o<<<<< (ab) max sync:      0.00
       1.3426    -109.09011181  1.84D-04  1.80D-04  4.46D-03 3.5D-02      1.7



          %%%%% MacroIteration   4 %%%%%


          Number of sigma calls:        1
                       o<<<<< (aa):             0.00
                       o<<<<< (bb):             0.00
                       o<<<<< (ab):             0.00
                       o<<<<< (total)           0.00
                       o<<<<< (aa) ff           0.00
                       o<<<<< (aa) gop          0.00
                       o<<<<< (aa) dot          0.00
                       o<<<<< (ab) str          0.00
                       o<<<<< (ab) gath         0.00
                       o<<<<< (ab) dotab        0.00
                       o<<<<< (ab) scat         0.00
                       o<<<<< (ab) sync         0.00
                       o<<<<< Density           0.00
                       o<<<<< Density one       0.00
                       o<<<<< Density two       0.00
                       o<<<<< Density ab        0.00
                       o<<<<< Spin adapt        0.00
                       o<<<<< Symm adapt        0.00

                       o<<<<< (ab) max sync:      0.00

           >>>| Valence CI:            -13.564450211101
           >>>| MCSCF energy:         -109.090111814932
           >>>| Gradient norm:          0.276092450D-01

                              ----- Line search ------

        step       energy         lsg     num-lsg   num-lsh   lsrat    time
      ------- ---------------- --------- --------- --------- ------- --------
       0.0000    -109.09011181 -1.85D-04  0.00D+00  0.00D+00 0.0D+00      1.9
    0 shell      1 out of     12 in             2.07 secs
    0 shell      2 out of     12 in             2.07 secs
    0 shell      3 out of     12 in             2.07 secs
    0 shell      4 out of     12 in             2.07 secs
    0 shell      5 out of     12 in             2.07 secs
    0 shell      6 out of     12 in             2.07 secs
    0 shell      7 out of     12 in             2.07 secs
    0 shell      8 out of     12 in             2.07 secs
    0 shell      9 out of     12 in             2.07 secs
    0 shell     10 out of     12 in             2.07 secs
    0 shell     11 out of     12 in             2.08 secs
    0 shell     12 out of     12 in             2.08 secs

          Number of sigma calls:       12
                       o<<<<< (aa):             0.00
                       o<<<<< (bb):             0.00
                       o<<<<< (ab):             0.00
                       o<<<<< (total)           0.00
                       o<<<<< (aa) ff           0.00
                       o<<<<< (aa) gop          0.00
                       o<<<<< (aa) dot          0.00
                       o<<<<< (ab) str          0.00
                       o<<<<< (ab) gath         0.00
                       o<<<<< (ab) dotab        0.00
                       o<<<<< (ab) scat         0.00
                       o<<<<< (ab) sync         0.00
                       o<<<<< Density           0.00
                       o<<<<< Density one       0.00
                       o<<<<< Density two       0.00
                       o<<<<< Density ab        0.00
                       o<<<<< Spin adapt        0.00
                       o<<<<< Symm adapt        0.00

                       o<<<<< (ab) max sync:      0.00
       1.0000    -109.09021518 -2.14D-05 -2.14D-05  1.64D-04 1.2D-01      2.0
    0 shell      1 out of     12 in             2.14 secs
    0 shell      2 out of     12 in             2.14 secs
    0 shell      3 out of     12 in             2.14 secs
    0 shell      4 out of     12 in             2.14 secs
    0 shell      5 out of     12 in             2.14 secs
    0 shell      6 out of     12 in             2.15 secs
    0 shell      7 out of     12 in             2.15 secs
    0 shell      8 out of     12 in             2.15 secs
    0 shell      9 out of     12 in             2.15 secs
    0 shell     10 out of     12 in             2.15 secs
    0 shell     11 out of     12 in             2.15 secs
    0 shell     12 out of     12 in             2.15 secs

          Number of sigma calls:       10
                       o<<<<< (aa):             0.00
                       o<<<<< (bb):             0.00
                       o<<<<< (ab):             0.00
                       o<<<<< (total)           0.00
                       o<<<<< (aa) ff           0.00
                       o<<<<< (aa) gop          0.00
                       o<<<<< (aa) dot          0.00
                       o<<<<< (ab) str          0.00
                       o<<<<< (ab) gath         0.00
                       o<<<<< (ab) dotab        0.00
                       o<<<<< (ab) scat         0.00
                       o<<<<< (ab) sync         0.00
                       o<<<<< Density           0.00
                       o<<<<< Density one       0.00
                       o<<<<< Density two       0.00
                       o<<<<< Density ab        0.00
                       o<<<<< Spin adapt        0.00
                       o<<<<< Symm adapt        0.00

                       o<<<<< (ab) max sync:      0.00
       1.1304    -109.09021658 -6.41D-09 -5.92D-09  1.64D-04 3.5D-05      2.0



          %%%%% MacroIteration   5 %%%%%


          Number of sigma calls:        1
                       o<<<<< (aa):             0.00
                       o<<<<< (bb):             0.00
                       o<<<<< (ab):             0.00
                       o<<<<< (total)           0.00
                       o<<<<< (aa) ff           0.00
                       o<<<<< (aa) gop          0.00
                       o<<<<< (aa) dot          0.00
                       o<<<<< (ab) str          0.00
                       o<<<<< (ab) gath         0.00
                       o<<<<< (ab) dotab        0.00
                       o<<<<< (ab) scat         0.00
                       o<<<<< (ab) sync         0.00
                       o<<<<< Density           0.00
                       o<<<<< Density one       0.00
                       o<<<<< Density two       0.00
                       o<<<<< Density ab        0.00
                       o<<<<< Spin adapt        0.00
                       o<<<<< Symm adapt        0.00

                       o<<<<< (ab) max sync:      0.00

           >>>| Valence CI:            -13.654443138184
           >>>| MCSCF energy:         -109.090216578211
           >>>| Gradient norm:          0.248849591D-02
     --- Warning:    2 Hessian diagonals < 0.05 ---

                              ----- Line search ------

        step       energy         lsg     num-lsg   num-lsh   lsrat    time
      ------- ---------------- --------- --------- --------- ------- --------
       0.0000    -109.09021658 -9.26D-06  0.00D+00  0.00D+00 0.0D+00      2.3
    0 shell      1 out of     12 in             2.44 secs
    0 shell      2 out of     12 in             2.44 secs
    0 shell      3 out of     12 in             2.44 secs
    0 shell      4 out of     12 in             2.44 secs
    0 shell      5 out of     12 in             2.44 secs
    0 shell      6 out of     12 in             2.44 secs
    0 shell      7 out of     12 in             2.44 secs
    0 shell      8 out of     12 in             2.45 secs
    0 shell      9 out of     12 in             2.45 secs
    0 shell     10 out of     12 in             2.45 secs
    0 shell     11 out of     12 in             2.45 secs
    0 shell     12 out of     12 in             2.45 secs

          Number of sigma calls:       10
                       o<<<<< (aa):             0.00
                       o<<<<< (bb):             0.00
                       o<<<<< (ab):             0.00
                       o<<<<< (total)           0.00
                       o<<<<< (aa) ff           0.00
                       o<<<<< (aa) gop          0.00
                       o<<<<< (aa) dot          0.00
                       o<<<<< (ab) str          0.00
                       o<<<<< (ab) gath         0.00
                       o<<<<< (ab) dotab        0.00
                       o<<<<< (ab) scat         0.00
                       o<<<<< (ab) sync         0.00
                       o<<<<< Density           0.00
                       o<<<<< Density one       0.00
                       o<<<<< Density two       0.00
                       o<<<<< Density ab        0.00
                       o<<<<< Spin adapt        0.00
                       o<<<<< Symm adapt        0.00

                       o<<<<< (ab) max sync:      0.00
       1.0000    -109.09022163 -8.48D-07 -8.48D-07  8.41D-06 9.2D-02      2.3



          %%%%% MacroIteration   6 %%%%%


          Number of sigma calls:        1
                       o<<<<< (aa):             0.00
                       o<<<<< (bb):             0.00
                       o<<<<< (ab):             0.00
                       o<<<<< (total)           0.00
                       o<<<<< (aa) ff           0.00
                       o<<<<< (aa) gop          0.00
                       o<<<<< (aa) dot          0.00
                       o<<<<< (ab) str          0.00
                       o<<<<< (ab) gath         0.00
                       o<<<<< (ab) dotab        0.00
                       o<<<<< (ab) scat         0.00
                       o<<<<< (ab) sync         0.00
                       o<<<<< Density           0.00
                       o<<<<< Density one       0.00
                       o<<<<< Density two       0.00
                       o<<<<< Density ab        0.00
                       o<<<<< Spin adapt        0.00
                       o<<<<< Symm adapt        0.00

                       o<<<<< (ab) max sync:      0.00

           >>>| Valence CI:            -13.631458864088
           >>>| MCSCF energy:         -109.090221633211
           >>>| Gradient norm:          0.355743945D-03
     --- Warning:    2 Hessian diagonals < 0.05 ---

                              ----- Line search ------

        step       energy         lsg     num-lsg   num-lsh   lsrat    time
      ------- ---------------- --------- --------- --------- ------- --------
       0.0000    -109.09022163 -1.31D-08  0.00D+00  0.00D+00 0.0D+00      2.6
    0 shell      1 out of     12 in             2.74 secs
    0 shell      2 out of     12 in             2.74 secs
    0 shell      3 out of     12 in             2.74 secs
    0 shell      4 out of     12 in             2.74 secs
    0 shell      5 out of     12 in             2.74 secs
    0 shell      6 out of     12 in             2.74 secs
    0 shell      7 out of     12 in             2.74 secs
    0 shell      8 out of     12 in             2.74 secs
    0 shell      9 out of     12 in             2.74 secs
    0 shell     10 out of     12 in             2.75 secs
    0 shell     11 out of     12 in             2.75 secs
    0 shell     12 out of     12 in             2.75 secs

          Number of sigma calls:        8
                       o<<<<< (aa):             0.00
                       o<<<<< (bb):             0.00
                       o<<<<< (ab):             0.00
                       o<<<<< (total)           0.00
                       o<<<<< (aa) ff           0.00
                       o<<<<< (aa) gop          0.00
                       o<<<<< (aa) dot          0.00
                       o<<<<< (ab) str          0.00
                       o<<<<< (ab) gath         0.00
                       o<<<<< (ab) dotab        0.00
                       o<<<<< (ab) scat         0.00
                       o<<<<< (ab) sync         0.00
                       o<<<<< Density           0.00
                       o<<<<< Density one       0.00
                       o<<<<< Density two       0.00
                       o<<<<< Density ab        0.00
                       o<<<<< Spin adapt        0.00
                       o<<<<< Symm adapt        0.00

                       o<<<<< (ab) max sync:      0.00
       1.0000    -109.09022164 -7.18D-10 -7.18D-10  1.23D-08 5.5D-02      2.6



          %%%%% MacroIteration   7 %%%%%


          Number of sigma calls:        1
                       o<<<<< (aa):             0.00
                       o<<<<< (bb):             0.00
                       o<<<<< (ab):             0.00
                       o<<<<< (total)           0.00
                       o<<<<< (aa) ff           0.00
                       o<<<<< (aa) gop          0.00
                       o<<<<< (aa) dot          0.00
                       o<<<<< (ab) str          0.00
                       o<<<<< (ab) gath         0.00
                       o<<<<< (ab) dotab        0.00
                       o<<<<< (ab) scat         0.00
                       o<<<<< (ab) sync         0.00
                       o<<<<< Density           0.00
                       o<<<<< Density one       0.00
                       o<<<<< Density two       0.00
                       o<<<<< Density ab        0.00
                       o<<<<< Spin adapt        0.00
                       o<<<<< Symm adapt        0.00

                       o<<<<< (ab) max sync:      0.00

           >>>| Valence CI:            -13.631473111393
           >>>| MCSCF energy:         -109.090221640100
           >>>| Gradient norm:          0.200277012D-03
     --- Warning:    2 Hessian diagonals < 0.05 ---

                              ----- Line search ------

        step       energy         lsg     num-lsg   num-lsh   lsrat    time
      ------- ---------------- --------- --------- --------- ------- --------
       0.0000    -109.09022164 -7.77D-08  0.00D+00  0.00D+00 0.0D+00      2.9
    0 shell      1 out of     12 in             3.07 secs
    0 shell      2 out of     12 in             3.08 secs
    0 shell      3 out of     12 in             3.08 secs
    0 shell      4 out of     12 in             3.08 secs
    0 shell      5 out of     12 in             3.08 secs
    0 shell      6 out of     12 in             3.08 secs
    0 shell      7 out of     12 in             3.08 secs
    0 shell      8 out of     12 in             3.08 secs
    0 shell      9 out of     12 in             3.08 secs
    0 shell     10 out of     12 in             3.08 secs
    0 shell     11 out of     12 in             3.09 secs
    0 shell     12 out of     12 in             3.09 secs

          Number of sigma calls:        9
                       o<<<<< (aa):             0.00
                       o<<<<< (bb):             0.00
                       o<<<<< (ab):             0.00
                       o<<<<< (total)           0.00
                       o<<<<< (aa) ff           0.00
                       o<<<<< (aa) gop          0.00
                       o<<<<< (aa) dot          0.00
                       o<<<<< (ab) str          0.00
                       o<<<<< (ab) gath         0.00
                       o<<<<< (ab) dotab        0.00
                       o<<<<< (ab) scat         0.00
                       o<<<<< (ab) sync         0.00
                       o<<<<< Density           0.00
                       o<<<<< Density one       0.00
                       o<<<<< Density two       0.00
                       o<<<<< Density ab        0.00
                       o<<<<< Spin adapt        0.00
                       o<<<<< Symm adapt        0.00

                       o<<<<< (ab) max sync:      0.00
       1.0000    -109.09022168 -7.30D-09 -7.29D-09  7.04D-08 9.4D-02      3.0



          %%%%% MacroIteration   8 %%%%%


          Number of sigma calls:        1
                       o<<<<< (aa):             0.00
                       o<<<<< (bb):             0.00
                       o<<<<< (ab):             0.00
                       o<<<<< (total)           0.00
                       o<<<<< (aa) ff           0.00
                       o<<<<< (aa) gop          0.00
                       o<<<<< (aa) dot          0.00
                       o<<<<< (ab) str          0.00
                       o<<<<< (ab) gath         0.00
                       o<<<<< (ab) dotab        0.00
                       o<<<<< (ab) scat         0.00
                       o<<<<< (ab) sync         0.00
                       o<<<<< Density           0.00
                       o<<<<< Density one       0.00
                       o<<<<< Density two       0.00
                       o<<<<< Density ab        0.00
                       o<<<<< Spin adapt        0.00
                       o<<<<< Symm adapt        0.00

                       o<<<<< (ab) max sync:      0.00

           >>>| Valence CI:            -13.629336555700
           >>>| MCSCF energy:         -109.090221682600
           >>>| Gradient norm:          0.155033904D-04




     ==============================
            MCSCF Converged
     ==============================



          Canonical Eigenvalues

              1      
    1  -15.6427
    2  -15.6421
    3   -1.4492
    4   -0.7581
    5   -0.6213
    6   -0.6186
    7   -0.6186
    8   -0.0432
    9   -0.0432
   10   -0.0017
   11    0.8095
   12    0.8780
   13    0.8780
   14    0.8920
   15    0.9740
   16    0.9740
   17    1.1167
   18    1.5894
   19    1.7684
   20    1.7684
   21    1.8982
   22    1.8982
   23    2.3115
   24    2.3115
   25    2.8113
   26    3.0083
   27    3.0083
   28    3.2983
   29    3.8831
   30    4.2234

    0 shell      1 out of     12 in             3.19 secs
    0 shell      2 out of     12 in             3.19 secs
    0 shell      3 out of     12 in             3.19 secs
    0 shell      4 out of     12 in             3.19 secs
    0 shell      5 out of     12 in             3.19 secs
    0 shell      6 out of     12 in             3.19 secs
    0 shell      7 out of     12 in             3.19 secs
    0 shell      8 out of     12 in             3.20 secs
    0 shell      9 out of     12 in             3.20 secs
    0 shell     10 out of     12 in             3.20 secs
    0 shell     11 out of     12 in             3.20 secs
    0 shell     12 out of     12 in             3.20 secs

          Converged CI vector

   Index           Coefficient          Config. Occupation
         1          0.96744580          1  2  3  1  2  3
         8          0.04906503          1  2  3  1  4  5
        18         -0.02196223          1  2  3  2  5  6
        16         -0.02196223          1  2  3  3  4  6
        22         -0.05548731          1  2  4  1  2  4
        25          0.05069569          1  2  4  1  2  5
        23          0.05069569          1  2  4  1  3  4
        33          0.02606091          1  2  4  2  3  6
        82          0.05069569          1  2  5  1  2  4
        85         -0.08170889          1  2  5  1  2  5
        83         -0.03764330          1  2  5  1  3  4
        86         -0.05069569          1  2  5  1  3  5
        93         -0.03365813          1  2  5  2  3  6
        42          0.05069569          1  3  4  1  2  4
        45         -0.03764330          1  3  4  1  2  5
        43         -0.08170889          1  3  4  1  3  4
        46         -0.05069569          1  3  4  1  3  5
        53         -0.03365813          1  3  4  2  3  6
       105         -0.05069569          1  3  5  1  2  5
       103         -0.05069569          1  3  5  1  3  4
       106         -0.05548731          1  3  5  1  3  5
       113         -0.02606091          1  3  5  2  3  6
       141          0.04906503          1  4  5  1  2  3
       148          0.03160489          1  4  5  1  4  5
       242          0.02606091          2  3  6  1  2  4
       245         -0.03365813          2  3  6  1  2  5
       243         -0.03365813          2  3  6  1  3  4
       246         -0.02606091          2  3  6  1  3  5
       253         -0.04599126          2  3  6  2  3  6
       341         -0.02196223          2  5  6  1  2  3
       301         -0.02196223          3  4  6  1  2  3

          Number of sigma calls:        1
                       o<<<<< (aa):             0.00
                       o<<<<< (bb):             0.00
                       o<<<<< (ab):             0.00
                       o<<<<< (total)           0.00
                       o<<<<< (aa) ff           0.00
                       o<<<<< (aa) gop          0.00
                       o<<<<< (aa) dot          0.00
                       o<<<<< (ab) str          0.00
                       o<<<<< (ab) gath         0.00
                       o<<<<< (ab) dotab        0.00
                       o<<<<< (ab) scat         0.00
                       o<<<<< (ab) sync         0.00
                       o<<<<< Density           0.00
                       o<<<<< Density one       0.00
                       o<<<<< Density two       0.00
                       o<<<<< Density ab        0.00
                       o<<<<< Spin adapt        0.00
                       o<<<<< Symm adapt        0.00

                       o<<<<< (ab) max sync:      0.00



          Natural orbital occupation numbers

              1      
    1    2.0000
    2    2.0000
    3    2.0000
    4    2.0000
    5    1.9825
    6    1.9423
    7    1.9423
    8    0.0576
    9    0.0576
   10    0.0177

    0 shell      1 out of     12 in             3.21 secs
    0 shell      2 out of     12 in             3.21 secs
    0 shell      3 out of     12 in             3.21 secs
    0 shell      4 out of     12 in             3.21 secs
    0 shell      5 out of     12 in             3.21 secs
    0 shell      6 out of     12 in             3.21 secs
    0 shell      7 out of     12 in             3.21 secs
    0 shell      8 out of     12 in             3.22 secs
    0 shell      9 out of     12 in             3.22 secs
    0 shell     10 out of     12 in             3.22 secs
    0 shell     11 out of     12 in             3.22 secs
    0 shell     12 out of     12 in             3.22 secs

          Number of sigma calls:       12
                       o<<<<< (aa):             0.00
                       o<<<<< (bb):             0.00
                       o<<<<< (ab):             0.00
                       o<<<<< (total)           0.00
                       o<<<<< (aa) ff           0.00
                       o<<<<< (aa) gop          0.00
                       o<<<<< (aa) dot          0.00
                       o<<<<< (ab) str          0.00
                       o<<<<< (ab) gath         0.00
                       o<<<<< (ab) dotab        0.00
                       o<<<<< (ab) scat         0.00
                       o<<<<< (ab) sync         0.00
                       o<<<<< Density           0.00
                       o<<<<< Density one       0.00
                       o<<<<< Density two       0.00
                       o<<<<< Density ab        0.00
                       o<<<<< Spin adapt        0.00
                       o<<<<< Symm adapt        0.00

                       o<<<<< (ab) max sync:      0.00


       Final MCSCF results 
       ------------------- 

       Total MCSCF energy =   -109.090221682600
            Gradient norm =      1.6D-05

    CPU time for solution =      3.0s
   Wall time for solution =      3.1s



                        Analysis of MCSCF natural orbitals
                        ----------------------------------

 Vector    1  Occ=2.000000D+00  E=-1.564271D+01  Symmetry=a
              MO Center=  8.6D-19,  1.6D-18,  5.7D-11, r^2= 3.2D-01
   Bfn.  Coefficient  Atom+Function         Bfn.  Coefficient  Atom+Function  
  ----- ------------  ---------------      ----- ------------  ---------------
     1      0.708326  1 N  s                 16     -0.708326  2 N  s          

 Vector    2  Occ=2.000000D+00  E=-1.564214D+01  Symmetry=a
              MO Center=  1.8D-17,  2.7D-17, -5.7D-11, r^2= 3.2D-01
   Bfn.  Coefficient  Atom+Function         Bfn.  Coefficient  Atom+Function  
  ----- ------------  ---------------      ----- ------------  ---------------
     1      0.707724  1 N  s                 16      0.707724  2 N  s          

 Vector    3  Occ=2.000000D+00  E=-1.449171D+00  Symmetry=a
              MO Center=  4.7D-14,  6.6D-14,  4.8D-15, r^2= 1.2D+00
   Bfn.  Coefficient  Atom+Function         Bfn.  Coefficient  Atom+Function  
  ----- ------------  ---------------      ----- ------------  ---------------
     3      0.378235  1 N  s                 18      0.378235  2 N  s          
     2      0.300511  1 N  s                 17      0.300511  2 N  s          
     6     -0.162538  1 N  pz                21      0.162538  2 N  pz         

 Vector    4  Occ=2.000000D+00  E=-7.581056D-01  Symmetry=a
              MO Center=  1.2D-16,  6.5D-17, -1.1D-14, r^2= 1.3D+00
   Bfn.  Coefficient  Atom+Function         Bfn.  Coefficient  Atom+Function  
  ----- ------------  ---------------      ----- ------------  ---------------
     3      0.442802  1 N  s                 18     -0.442802  2 N  s          
     2      0.323512  1 N  s                 17     -0.323512  2 N  s          
     6     -0.211637  1 N  pz                21     -0.211637  2 N  pz         

 Vector    5  Occ=1.982524D+00  E=-6.213047D-01  Symmetry=a
              MO Center=  6.2D-14, -1.0D-13, -3.3D-14, r^2= 5.1D-01
   Bfn.  Coefficient  Atom+Function         Bfn.  Coefficient  Atom+Function  
  ----- ------------  ---------------      ----- ------------  ---------------
     6      0.476890  1 N  pz                21     -0.476890  2 N  pz         
     9      0.172857  1 N  pz                24     -0.172857  2 N  pz         
     2      0.168218  1 N  s                 17      0.168218  2 N  s          

 Vector    6  Occ=1.942291D+00  E=-6.185726D-01  Symmetry=a
              MO Center= -1.0D-13,  5.2D-14,  1.1D-14, r^2= 8.8D-01
   Bfn.  Coefficient  Atom+Function         Bfn.  Coefficient  Atom+Function  
  ----- ------------  ---------------      ----- ------------  ---------------
     4      0.391836  1 N  px                19      0.391836  2 N  px         
     7      0.217431  1 N  px                22      0.217431  2 N  px         
     5     -0.201578  1 N  py                20     -0.201578  2 N  py         

 Vector    7  Occ=1.942291D+00  E=-6.185726D-01  Symmetry=a
              MO Center= -9.5D-15, -1.8D-14, -1.7D-14, r^2= 8.8D-01
   Bfn.  Coefficient  Atom+Function         Bfn.  Coefficient  Atom+Function  
  ----- ------------  ---------------      ----- ------------  ---------------
     5      0.391836  1 N  py                20      0.391836  2 N  py         
     8      0.217431  1 N  py                23      0.217431  2 N  py         
     4      0.201578  1 N  px                19      0.201578  2 N  px         

 Vector    8  Occ=5.762182D-02  E=-4.322797D-02  Symmetry=a
              MO Center=  9.7D-17, -2.4D-16,  8.0D-15, r^2= 7.6D-01
   Bfn.  Coefficient  Atom+Function         Bfn.  Coefficient  Atom+Function  
  ----- ------------  ---------------      ----- ------------  ---------------
     5      0.680428  1 N  py                20     -0.680428  2 N  py         
     8      0.216363  1 N  py                23     -0.216363  2 N  py         

 Vector    9  Occ=5.762182D-02  E=-4.322797D-02  Symmetry=a
              MO Center= -1.3D-13,  1.9D-14, -3.2D-15, r^2= 7.6D-01
   Bfn.  Coefficient  Atom+Function         Bfn.  Coefficient  Atom+Function  
  ----- ------------  ---------------      ----- ------------  ---------------
     4      0.680428  1 N  px                19     -0.680428  2 N  px         
     7      0.216363  1 N  px                22     -0.216363  2 N  px         

 Vector   10  Occ=1.765020D-02  E=-1.665807D-03  Symmetry=a
              MO Center=  1.3D-13, -1.9D-14,  5.3D-14, r^2= 4.4D-01
   Bfn.  Coefficient  Atom+Function         Bfn.  Coefficient  Atom+Function  
  ----- ------------  ---------------      ----- ------------  ---------------
     6      0.927154  1 N  pz                21      0.927154  2 N  pz         
     3      0.597172  1 N  s                 18     -0.597172  2 N  s          
     2      0.584926  1 N  s                 17     -0.584926  2 N  s          
     9      0.277678  1 N  pz                24      0.277678  2 N  pz         
     1      0.169961  1 N  s                 16     -0.169961  2 N  s          

 Vector   11  Occ=0.000000D+00  E= 8.094626D-01  Symmetry=a
              MO Center=  3.3D-15,  5.8D-15, -4.9D-14, r^2= 1.8D+00
   Bfn.  Coefficient  Atom+Function         Bfn.  Coefficient  Atom+Function  
  ----- ------------  ---------------      ----- ------------  ---------------
     9      0.842643  1 N  pz                24     -0.842643  2 N  pz         
     2     -0.547280  1 N  s                 17     -0.547280  2 N  s          
     3      0.465769  1 N  s                 18      0.465769  2 N  s          
     6     -0.329209  1 N  pz                21      0.329209  2 N  pz         
     1     -0.284655  1 N  s                 16     -0.284655  2 N  s          

 Vector   12  Occ=0.000000D+00  E= 8.779867D-01  Symmetry=a
              MO Center=  5.0D-15,  1.4D-14,  1.4D-13, r^2= 1.8D+00
   Bfn.  Coefficient  Atom+Function         Bfn.  Coefficient  Atom+Function  
  ----- ------------  ---------------      ----- ------------  ---------------
     5      0.597635  1 N  py                20      0.597635  2 N  py         
     8     -0.588766  1 N  py                23     -0.588766  2 N  py         
     4      0.210561  1 N  px                19      0.210561  2 N  px         
     7     -0.207436  1 N  px                22     -0.207436  2 N  px         
    14      0.167475  1 N  dyz               29     -0.167475  2 N  dyz        

 Vector   13  Occ=0.000000D+00  E= 8.779867D-01  Symmetry=a
              MO Center=  7.1D-15, -2.4D-15,  1.6D-13, r^2= 1.8D+00
   Bfn.  Coefficient  Atom+Function         Bfn.  Coefficient  Atom+Function  
  ----- ------------  ---------------      ----- ------------  ---------------
     4      0.597635  1 N  px                19      0.597635  2 N  px         
     7     -0.588766  1 N  px                22     -0.588766  2 N  px         
     5     -0.210561  1 N  py                20     -0.210561  2 N  py         
     8      0.207436  1 N  py                23      0.207436  2 N  py         
    12      0.167475  1 N  dxz               27     -0.167475  2 N  dxz        

 Vector   14  Occ=0.000000D+00  E= 8.919906D-01  Symmetry=a
              MO Center= -1.5D-14, -1.7D-14,  7.1D-14, r^2= 2.4D+00
   Bfn.  Coefficient  Atom+Function         Bfn.  Coefficient  Atom+Function  
  ----- ------------  ---------------      ----- ------------  ---------------
     3      1.065054  1 N  s                 18      1.065054  2 N  s          
     2     -0.693291  1 N  s                 17     -0.693291  2 N  s          
     9     -0.475188  1 N  pz                24      0.475188  2 N  pz         
     6      0.419403  1 N  pz                21     -0.419403  2 N  pz         
     1     -0.315650  1 N  s                 16     -0.315650  2 N  s          

 Vector   15  Occ=0.000000D+00  E= 9.740271D-01  Symmetry=a
              MO Center=  9.4D-16,  5.4D-15, -1.4D-13, r^2= 2.6D+00
   Bfn.  Coefficient  Atom+Function         Bfn.  Coefficient  Atom+Function  
  ----- ------------  ---------------      ----- ------------  ---------------
     8      1.311870  1 N  py                23     -1.311870  2 N  py         
     5     -0.508904  1 N  py                20      0.508904  2 N  py         
     7      0.222366  1 N  px                22     -0.222366  2 N  px         

 Vector   16  Occ=0.000000D+00  E= 9.740271D-01  Symmetry=a
              MO Center=  2.0D-15, -3.2D-16, -1.6D-13, r^2= 2.6D+00
   Bfn.  Coefficient  Atom+Function         Bfn.  Coefficient  Atom+Function  
  ----- ------------  ---------------      ----- ------------  ---------------
     7      1.311870  1 N  px                22     -1.311870  2 N  px         
     4     -0.508904  1 N  px                19      0.508904  2 N  px         
     8     -0.222366  1 N  py                23      0.222366  2 N  py         

 Vector   17  Occ=0.000000D+00  E= 1.116707D+00  Symmetry=a
              MO Center= -3.0D-15, -2.9D-15, -5.4D-14, r^2= 3.1D+00
   Bfn.  Coefficient  Atom+Function         Bfn.  Coefficient  Atom+Function  
  ----- ------------  ---------------      ----- ------------  ---------------
     9      1.506943  1 N  pz                24      1.506943  2 N  pz         
     3      1.010243  1 N  s                 18     -1.010243  2 N  s          
     2      0.595695  1 N  s                 17     -0.595695  2 N  s          
    15      0.445313  1 N  dzz               30     -0.445313  2 N  dzz        
     1      0.259968  1 N  s                 16     -0.259968  2 N  s          

 Vector   18  Occ=0.000000D+00  E= 1.589432D+00  Symmetry=a
              MO Center=  1.3D-16, -1.9D-15,  4.5D-14, r^2= 2.9D+00
   Bfn.  Coefficient  Atom+Function         Bfn.  Coefficient  Atom+Function  
  ----- ------------  ---------------      ----- ------------  ---------------
     3      8.019236  1 N  s                 18     -8.019236  2 N  s          
     9      3.771437  1 N  pz                24      3.771437  2 N  pz         
     2     -1.173714  1 N  s                 17      1.173714  2 N  s          
     1     -0.633625  1 N  s                 16      0.633625  2 N  s          
    10     -0.273243  1 N  dxx               13     -0.273243  1 N  dyy        

 Vector   19  Occ=0.000000D+00  E= 1.768448D+00  Symmetry=a
              MO Center= -4.3D-17,  3.2D-17,  2.7D-14, r^2= 8.5D-01
   Bfn.  Coefficient  Atom+Function         Bfn.  Coefficient  Atom+Function  
  ----- ------------  ---------------      ----- ------------  ---------------
    10      0.565071  1 N  dxx               13     -0.565071  1 N  dyy        
    25      0.565071  2 N  dxx               28     -0.565071  2 N  dyy        

 Vector   20  Occ=0.000000D+00  E= 1.768448D+00  Symmetry=a
              MO Center= -2.0D-17, -2.8D-17,  2.0D-14, r^2= 8.5D-01
   Bfn.  Coefficient  Atom+Function         Bfn.  Coefficient  Atom+Function  
  ----- ------------  ---------------      ----- ------------  ---------------
    11      1.130142  1 N  dxy               26      1.130142  2 N  dxy        


 Wrote Lagrangian and 1- and 2-particle density matrices to ./tce_n2_1re.mcpdm


     Multipole analysis of the density
     ---------------------------------

     L   x y z        total        nuclear
     -   - - -        -----        -------
     0   0 0 0     -0.000000     14.000000

     1   1 0 0      0.000000      0.000000
     1   0 1 0     -0.000000      0.000000
     1   0 0 1      0.000000      0.000000

     2   2 0 0     -7.370248      0.000000
     2   1 1 0      0.000000      0.000000
     2   1 0 1     -0.000000      0.000000
     2   0 2 0     -7.370248      0.000000
     2   0 1 1      0.000000      0.000000
     2   0 0 2     -8.742961     14.968184


  Mulliken analysis of the total density
  --------------------------------------

    Atom       Charge   Shell Charges
 -----------   ------   -------------------------------------------------------
    1 N    7     7.00   2.00  0.85  0.91  2.19  0.99  0.06
    2 N    7     7.00   2.00  0.85  0.91  2.19  0.99  0.06

    Mulliken analysis of the active space density
    ---------------------------------------------

    Atom       Charge   Shell Charges
 -----------   ------   -------------------------------------------------------
    1 N    7     3.00   0.00  0.11 -0.05  1.99  0.89  0.06
    2 N    7     3.00   0.00  0.11 -0.05  1.99  0.89  0.06

 Task  times  cpu:        3.1s     wall:        3.2s


                                NWChem Input Module
                                -------------------


                                 NWChem SCF Module
                                 -----------------



  ao basis        = "ao basis"
  functions       =    30
  atoms           =     2
  closed shells   =     7
  open shells     =     0
  charge          =   0.00
  wavefunction    = RHF 
  input vectors   = atomic
  output vectors  = ./tce_n2_1re.movecs
  use symmetry    = F
  symmetry adapt  = F


 Summary of "ao basis" -> "ao basis" (cartesian)
 ------------------------------------------------------------------------------
       Tag                 Description            Shells   Functions and Types
 ---------------- ------------------------------  ------  ---------------------
 n                          cc-pvdz                  6       15   3s2p1d



 Forming initial guess at       3.3s


      Superposition of Atomic Density Guess
      -------------------------------------

 Sum of atomic energies:        -108.60004629

      Non-variational initial energy
      ------------------------------

 Total energy =    -109.123177
 1-e energy   =    -194.140722
 2-e energy   =      61.323154
 HOMO         =      -0.418440
 LUMO         =       0.037253


 Starting SCF solution at       3.4s



 ----------------------------------------------
         Quadratically convergent ROHF

 Convergence threshold     :          1.000E-10
 Maximum no. of iterations :           30
 Final Fock-matrix accuracy:          1.000E-10
 ----------------------------------------------



       Final RHF  results 
       ------------------ 

         Total SCF energy =   -108.943305065375
      One-electron energy =   -193.922403167641
      Two-electron energy =     61.284707386599
 Nuclear repulsion energy =     23.694390715667

        Time for solution =      0.0s


             Final eigenvalues
             -----------------

              1      
    1  -15.7480
    2  -15.7421
    3   -1.7461
    4   -0.7149
    5   -0.5262
    6   -0.5262
    7   -0.4184
    8    0.0373
    9    0.0373
   10    0.5517
   11    0.8012
   12    0.8680
   13    0.8680
   14    0.8732
   15    1.0144
   16    1.0144
   17    1.0628

                       ROHF Final Molecular Orbital Analysis
                       -------------------------------------

 Vector    2  Occ=2.000000D+00  E=-1.574211D+01
              MO Center=  2.8D-19,  7.1D-19,  1.8D-13, r^2= 3.2D-01
   Bfn.  Coefficient  Atom+Function         Bfn.  Coefficient  Atom+Function  
  ----- ------------  ---------------      ----- ------------  ---------------
     1      0.708149  1 N  s                 16     -0.708149  2 N  s          

 Vector    3  Occ=2.000000D+00  E=-1.746080D+00
              MO Center=  4.2D-19,  1.9D-18, -6.5D-16, r^2= 4.9D-01
   Bfn.  Coefficient  Atom+Function         Bfn.  Coefficient  Atom+Function  
  ----- ------------  ---------------      ----- ------------  ---------------
     2      0.336075  1 N  s                 17      0.336075  2 N  s          
     3      0.210434  1 N  s                 18      0.210434  2 N  s          
     6      0.179183  1 N  pz                21     -0.179183  2 N  pz         

 Vector    4  Occ=2.000000D+00  E=-7.148501D-01
              MO Center= -2.8D-18, -1.8D-18, -1.5D-15, r^2= 1.3D+00
   Bfn.  Coefficient  Atom+Function         Bfn.  Coefficient  Atom+Function  
  ----- ------------  ---------------      ----- ------------  ---------------
     3      0.458305  1 N  s                 18     -0.458305  2 N  s          
     2      0.341107  1 N  s                 17     -0.341107  2 N  s          
     6     -0.190698  1 N  pz                21     -0.190698  2 N  pz         

 Vector    5  Occ=2.000000D+00  E=-5.262179D-01
              MO Center=  6.3D-16,  1.1D-15,  1.6D-16, r^2= 9.2D-01
   Bfn.  Coefficient  Atom+Function         Bfn.  Coefficient  Atom+Function  
  ----- ------------  ---------------      ----- ------------  ---------------
     5      0.369273  1 N  py                20      0.369273  2 N  py         
     8      0.227177  1 N  py                23      0.227177  2 N  py         
     4      0.209679  1 N  px                19      0.209679  2 N  px         

 Vector    6  Occ=2.000000D+00  E=-5.262179D-01
              MO Center= -2.4D-16,  1.8D-16, -4.4D-16, r^2= 9.2D-01
   Bfn.  Coefficient  Atom+Function         Bfn.  Coefficient  Atom+Function  
  ----- ------------  ---------------      ----- ------------  ---------------
     4      0.369273  1 N  px                19      0.369273  2 N  px         
     7      0.227177  1 N  px                22      0.227177  2 N  px         
     5     -0.209679  1 N  py                20     -0.209679  2 N  py         

 Vector    7  Occ=2.000000D+00  E=-4.184397D-01
              MO Center= -5.1D-16, -1.4D-15,  1.4D-15, r^2= 1.3D+00
   Bfn.  Coefficient  Atom+Function         Bfn.  Coefficient  Atom+Function  
  ----- ------------  ---------------      ----- ------------  ---------------
     6      0.449429  1 N  pz                21     -0.449429  2 N  pz         
     3     -0.333087  1 N  s                 18     -0.333087  2 N  s          
     9      0.248212  1 N  pz                24     -0.248212  2 N  pz         

 Vector    8  Occ=0.000000D+00  E= 3.725271D-02
              MO Center= -1.1D-16,  5.9D-17, -3.9D-17, r^2= 1.3D+00
   Bfn.  Coefficient  Atom+Function         Bfn.  Coefficient  Atom+Function  
  ----- ------------  ---------------      ----- ------------  ---------------
     8      0.602985  1 N  py                23     -0.602985  2 N  py         
     5      0.471125  1 N  py                20     -0.471125  2 N  py         

 Vector    9  Occ=0.000000D+00  E= 3.725271D-02
              MO Center= -6.3D-17, -1.8D-16,  4.9D-16, r^2= 1.3D+00
   Bfn.  Coefficient  Atom+Function         Bfn.  Coefficient  Atom+Function  
  ----- ------------  ---------------      ----- ------------  ---------------
     7      0.602985  1 N  px                22     -0.602985  2 N  px         
     4      0.471125  1 N  px                19     -0.471125  2 N  px         

 Vector   10  Occ=0.000000D+00  E= 5.516516D-01
              MO Center=  2.3D-17, -7.2D-17,  2.4D-14, r^2= 3.1D+00
   Bfn.  Coefficient  Atom+Function         Bfn.  Coefficient  Atom+Function  
  ----- ------------  ---------------      ----- ------------  ---------------
     3      3.757655  1 N  s                 18     -3.757655  2 N  s          
     9      2.535977  1 N  pz                24      2.535977  2 N  pz         
     2      0.199606  1 N  s                 17     -0.199606  2 N  s          

 Vector   11  Occ=0.000000D+00  E= 8.012182D-01
              MO Center= -7.1D-16,  1.2D-15, -2.2D-14, r^2= 1.7D+00
   Bfn.  Coefficient  Atom+Function         Bfn.  Coefficient  Atom+Function  
  ----- ------------  ---------------      ----- ------------  ---------------
     9      0.824861  1 N  pz                24     -0.824861  2 N  pz         
     2     -0.561806  1 N  s                 17     -0.561806  2 N  s          
     3      0.483550  1 N  s                 18      0.483550  2 N  s          
     6     -0.342509  1 N  pz                21      0.342509  2 N  pz         
     1     -0.288559  1 N  s                 16     -0.288559  2 N  s          

 Vector   12  Occ=0.000000D+00  E= 8.679751D-01
              MO Center=  6.6D-14, -9.8D-15,  7.0D-15, r^2= 1.7D+00
   Bfn.  Coefficient  Atom+Function         Bfn.  Coefficient  Atom+Function  
  ----- ------------  ---------------      ----- ------------  ---------------
     4      0.642188  1 N  px                19      0.642188  2 N  px         
     7     -0.611392  1 N  px                22     -0.611392  2 N  px         
    12      0.164029  1 N  dxz               27     -0.164029  2 N  dxz        

 Vector   13  Occ=0.000000D+00  E= 8.679751D-01
              MO Center= -1.5D-15, -9.8D-15,  2.1D-15, r^2= 1.7D+00
   Bfn.  Coefficient  Atom+Function         Bfn.  Coefficient  Atom+Function  
  ----- ------------  ---------------      ----- ------------  ---------------
     5      0.642188  1 N  py                20      0.642188  2 N  py         
     8     -0.611392  1 N  py                23     -0.611392  2 N  py         
    14      0.164029  1 N  dyz               29     -0.164029  2 N  dyz        

 Vector   14  Occ=0.000000D+00  E= 8.731679D-01
              MO Center= -6.3D-14,  1.8D-14,  2.7D-14, r^2= 2.4D+00
   Bfn.  Coefficient  Atom+Function         Bfn.  Coefficient  Atom+Function  
  ----- ------------  ---------------      ----- ------------  ---------------
     3      1.049822  1 N  s                 18      1.049822  2 N  s          
     2     -0.685527  1 N  s                 17     -0.685527  2 N  s          
     9     -0.486219  1 N  pz                24      0.486219  2 N  pz         
     6      0.434100  1 N  pz                21     -0.434100  2 N  pz         
     1     -0.311088  1 N  s                 16     -0.311088  2 N  s          

 Vector   15  Occ=0.000000D+00  E= 1.014433D+00
              MO Center=  2.0D-15,  3.0D-15, -4.1D-15, r^2= 2.1D+00
   Bfn.  Coefficient  Atom+Function         Bfn.  Coefficient  Atom+Function  
  ----- ------------  ---------------      ----- ------------  ---------------
     8      0.999843  1 N  py                23     -0.999843  2 N  py         
     7      0.659756  1 N  px                22     -0.659756  2 N  px         
     5     -0.588905  1 N  py                20      0.588905  2 N  py         
     4     -0.388595  1 N  px                19      0.388595  2 N  px         

 Vector   16  Occ=0.000000D+00  E= 1.014433D+00
              MO Center=  4.7D-17, -2.9D-17, -5.8D-15, r^2= 2.1D+00
   Bfn.  Coefficient  Atom+Function         Bfn.  Coefficient  Atom+Function  
  ----- ------------  ---------------      ----- ------------  ---------------
     7      0.999843  1 N  px                22     -0.999843  2 N  px         
     8     -0.659756  1 N  py                23      0.659756  2 N  py         
     4     -0.588905  1 N  px                19      0.588905  2 N  px         
     5      0.388595  1 N  py                20     -0.388595  2 N  py         

 Vector   17  Occ=0.000000D+00  E= 1.062790D+00
              MO Center= -1.9D-15, -3.0D-15, -1.7D-14, r^2= 1.3D+00
   Bfn.  Coefficient  Atom+Function         Bfn.  Coefficient  Atom+Function  
  ----- ------------  ---------------      ----- ------------  ---------------
     3      1.086764  1 N  s                 18     -1.086764  2 N  s          
     6      0.698884  1 N  pz                21      0.698884  2 N  pz         
    15     -0.376914  1 N  dzz               30      0.376914  2 N  dzz        
     2     -0.238415  1 N  s                 17      0.238415  2 N  s          
     1     -0.183368  1 N  s                 16      0.183368  2 N  s          


 center of mass
 --------------
 x =   0.00000000 y =   0.00000000 z =   0.00000000

 moments of inertia (a.u.)
 ------------------
          29.942932617840           0.000000000000           0.000000000000
           0.000000000000          29.942932617840           0.000000000000
           0.000000000000           0.000000000000           0.000000000000

  Mulliken analysis of the total density
  --------------------------------------

    Atom       Charge   Shell Charges
 -----------   ------   -------------------------------------------------------
    1 N    7     7.00   2.00  0.87  0.92  2.06  1.10  0.04
    2 N    7     7.00   2.00  0.87  0.92  2.06  1.10  0.04

       Multipole analysis of the density wrt the origin
       ------------------------------------------------

     L   x y z        total         open         nuclear
     -   - - -        -----         ----         -------
     0   0 0 0     -0.000000      0.000000     14.000000

     1   1 0 0      0.000000      0.000000      0.000000
     1   0 1 0      0.000000      0.000000      0.000000
     1   0 0 1      0.000000      0.000000      0.000000

     2   2 0 0     -7.681163      0.000000      0.000000
     2   1 1 0     -0.000000      0.000000      0.000000
     2   1 0 1      0.000000      0.000000      0.000000
     2   0 2 0     -7.681163      0.000000      0.000000
     2   0 1 1      0.000000      0.000000      0.000000
     2   0 0 2     -9.059357      0.000000     14.968184

                   NWChem Extensible Many-Electron Theory Module
                   ---------------------------------------------

              ======================================================
                   This portion of the program was automatically
                  generated by a Tensor Contraction Engine (TCE).
                  The development of this portion of the program
                 and TCE was supported by US Department of Energy,
                Office of Science, Office of Basic Energy Science.
                      TCE is a product of Battelle and PNNL.
              Please cite: S.Hirata, J.Phys.Chem.A 107, 9887 (2003).
              ======================================================

            General Information
            -------------------
      Number of processors :     1
         Wavefunction type : Restricted Hartree-Fock
          No. of electrons :    14
           Alpha electrons :     7
            Beta electrons :     7
           No. of orbitals :    60
            Alpha orbitals :    30
             Beta orbitals :    30
        Alpha frozen cores :     0
         Beta frozen cores :     0
     Alpha frozen virtuals :     0
      Beta frozen virtuals :     0
         Spin multiplicity : singlet 
    Number of AO functions :    30
       Number of AO shells :    12
        Use of symmetry is : off
      Symmetry adaption is : off
         Schwarz screening : 0.10D-09

          Correlation Information
          -----------------------
          Calculation type : Coupled-cluster singles & doubles                           
   Perturbative correction : none                                                        
            Max iterations :      100
        Residual threshold : 0.10D-06
     T(0) DIIS level shift : 0.00D+00
     L(0) DIIS level shift : 0.00D+00
     T(1) DIIS level shift : 0.00D+00
     L(1) DIIS level shift : 0.00D+00
     T(R) DIIS level shift : 0.00D+00
     T(I) DIIS level shift : 0.00D+00
   CC-T/L Amplitude update :  5-th order DIIS
                I/O scheme : Global Array Library
        L-threshold :  0.10D-06
        EOM-threshold :  0.10D-06
 no EOMCCSD initial starts read in
 TCE RESTART OPTIONS
 READ_INT:   F
 WRITE_INT:  F
 READ_TA:    F
 WRITE_TA:   F
 READ_XA:    F
 WRITE_XA:   F
 READ_IN3:   F
 WRITE_IN3:  F
 SLICE:      F
 D4D5:       F
 quantumc:   F
 qrotation:  F
 pwtce:      F
 qducc:      F
 nacto:                         0
 nrotv:                         0
 nrot:                          0

            Memory Information
            ------------------
          Available GA space size is      26213500 doubles
          Available MA space size is      26212676 doubles

 Maximum block size        32 doubles

 tile_dim =     23

 Block   Spin    Irrep     Size     Offset   Alpha
 -------------------------------------------------
   1    alpha     a      7 doubles       0       1
   2    beta      a      7 doubles       7       1
   3    alpha     a     23 doubles      14       3
   4    beta      a     23 doubles      37       3

 Global array virtual files algorithm will be used

 Parallel file system coherency ......... OK

 Fock matrix recomputed
 1-e file size   =              900
 1-e file name   = ./tce_n2_1re.f1
 Cpu & wall time / sec            0.0            0.0

 tce_ao2e: fast2e=1
 half-transformed integrals in memory

 2-e (intermediate) file size =         2140200
 2-e (intermediate) file name = ./tce_n2_1re.v2i
 Cpu & wall time / sec            0.2            0.2

 tce_mo2e: fast2e=1
 2-e integrals stored in memory

 2-e file size   =          1356121
 2-e file name   = ./tce_n2_1re.v2
 Cpu & wall time / sec            0.0            0.0
 T1-number-of-tasks                    1

 t1 file size   =              161
 t1 file name   = ./tce_n2_1re.t1
 t1 file handle =       -999
 T2-number-of-boxes                    2

 t2 file size   =            51842
 t2 file name   = ./tce_n2_1re.t2
 t2 file handle =       -996
CCSD iterations
 ---------------------------------------------------------
 Iter          Residuum       Correlation     Cpu    Wall 
 ---------------------------------------------------------
NEW TASK SCHEDULING
CCSD_T1_NTS --- OK
CCSD_T2_NTS --- OK
    1   0.2842839537873  -0.3831395801078     0.0     0.0
    2   0.1407823558044  -0.2916261051633     0.0     0.0
    3   0.0808937355473  -0.3490751280212     0.0     0.0
    4   0.0468665237100  -0.3185558674767     0.0     0.0
    5   0.0271530995550  -0.3367649871470     0.0     0.0
 MICROCYCLE DIIS UPDATE:                    5                    5
    6   0.0007829632782  -0.3302796563511     0.0     0.0
    7   0.0002461520418  -0.3302893907446     0.0     0.0
    8   0.0000983448321  -0.3302726836219     0.0     0.0
    9   0.0000416401717  -0.3302858505823     0.0     0.0
   10   0.0000183824690  -0.3302808550862     0.0     0.0
 MICROCYCLE DIIS UPDATE:                   10                    5
   11   0.0000039621720  -0.3302833471777     0.0     0.0
   12   0.0000015084552  -0.3302842373204     0.0     0.0
   13   0.0000008069723  -0.3302838499703     0.0     0.0
   14   0.0000004299477  -0.3302841424178     0.0     0.0
   15   0.0000002535026  -0.3302839895036     0.0     0.0
 MICROCYCLE DIIS UPDATE:                   15                    5
   16   0.0000000227698  -0.3302840513646     0.0     0.0
 -----------------------------------------------------------------
 Iterations converged
 CCSD correlation energy / hartree =        -0.330284051364594
 CCSD total energy / hartree       =      -109.273589116739544

 Singles contributions

 Doubles contributions

 Task  times  cpu:        0.7s     wall:        0.7s


                                NWChem Input Module
                                -------------------


 Summary of allocated global arrays
-----------------------------------
  No active global arrays



                         GA Statistics for process    0
                         ------------------------------

       create   destroy   get      put      acc     scatter   gather  read&inc
calls: 4099     4099     6.25e+04 1.92e+04 3.06e+05  942        0     1.32e+04 
number of processes/call -9.86e+12 2.98e+14 -1.02e+13 0.00e+00 0.00e+00
bytes total:             8.33e+08 6.77e+07 2.59e+08 1.08e+05 0.00e+00 1.06e+05
bytes remote:            0.00e+00 0.00e+00 0.00e+00 0.00e+00 0.00e+00 0.00e+00
Max memory consumed for GA by this process: 27984976 bytes

MA_summarize_allocated_blocks: starting scan ...
MA_summarize_allocated_blocks: scan completed: 0 heap blocks, 0 stack blocks
MA usage statistics:

	allocation statistics:
					      heap	     stack
					      ----	     -----
	current number of blocks	         0	         0
	maximum number of blocks	        17	        36
	current total bytes		         0	         0
	maximum total bytes		     80104	  22520264
	maximum total K-bytes		        81	     22521
	maximum total M-bytes		         1	        23


                                     CITATION
                                     --------
                Please cite the following reference when publishing
                           results obtained with NWChem:

          E. Apr, E. J. Bylaska, W. A. de Jong, N. Govind, K. Kowalski,
       T. P. Straatsma, M. Valiev, H. J. J. van Dam, Y. Alexeev, J. Anchell,
       V. Anisimov, F. W. Aquino, R. Atta-Fynn, J. Autschbach, N. P. Bauman,
     J. C. Becca, D. E. Bernholdt, K. Bhaskaran-Nair, S. Bogatko, P. Borowski,
        J. Boschen, J. Brabec, A. Bruner, E. Caut, Y. Chen, G. N. Chuev,
      C. J. Cramer, J. Daily, M. J. O. Deegan, T. H. Dunning Jr., M. Dupuis,
   K. G. Dyall, G. I. Fann, S. A. Fischer, A. Fonari, H. Frchtl, L. Gagliardi,
      J. Garza, N. Gawande, S. Ghosh, K. Glaesemann, A. W. Gtz, J. Hammond,
       V. Helms, E. D. Hermes, K. Hirao, S. Hirata, M. Jacquelin, L. Jensen,
   B. G. Johnson, H. Jnsson, R. A. Kendall, M. Klemm, R. Kobayashi, V. Konkov,
      S. Krishnamoorthy, M. Krishnan, Z. Lin, R. D. Lins, R. J. Littlefield,
      A. J. Logsdail, K. Lopata, W. Ma, A. V. Marenich, J. Martin del Campo,
   D. Mejia-Rodriguez, J. E. Moore, J. M. Mullin, T. Nakajima, D. R. Nascimento,
    J. A. Nichols, P. J. Nichols, J. Nieplocha, A. Otero-de-la-Roza, B. Palmer,
    A. Panyala, T. Pirojsirikul, B. Peng, R. Peverati, J. Pittner, L. Pollack,
   R. M. Richard, P. Sadayappan, G. C. Schatz, W. A. Shelton, D. W. Silverstein,
   D. M. A. Smith, T. A. Soares, D. Song, M. Swart, H. L. Taylor, G. S. Thomas,
            V. Tipparaju, D. G. Truhlar, K. Tsemekhman, T. Van Voorhis,
     . Vzquez-Mayagoitia, P. Verma, O. Villa, A. Vishnu, K. D. Vogiatzis,
        D. Wang, J. H. Weare, M. J. Williamson, T. L. Windus, K. Woliski,
        A. T. Wong, Q. Wu, C. Yang, Q. Yu, M. Zacharias, Z. Zhang, Y. Zhao,
                                and R. J. Harrison
                        "NWChem: Past, present, and future
                         J. Chem. Phys. 152, 184102 (2020)
                               doi:10.1063/5.0004997

                                      AUTHORS
                                      -------
     E. Apra, E. J. Bylaska, N. Govind, K. Kowalski, M. Valiev, W. A. de Jong,
      T. P. Straatsma, H. J. J. van Dam, D. Wang, T. L. Windus, N. P. Bauman,
       A. Panyala, J. Hammond, J. Autschbach, K. Bhaskaran-Nair, J. Brabec,
    K. Lopata, S. A. Fischer, S. Krishnamoorthy, M. Jacquelin, W. Ma, M. Klemm,
       O. Villa, Y. Chen, V. Anisimov, F. Aquino, S. Hirata, M. T. Hackler,
           Eric Hermes, L. Jensen, J. E. Moore, J. C. Becca, V. Konjkov,
            D. Mejia-Rodriguez, T. Risthaus, M. Malagoli, A. Marenich,
   A. Otero-de-la-Roza, J. Mullin, P. Nichols, R. Peverati, J. Pittner, Y. Zhao,
        P.-D. Fan, A. Fonari, M. J. Williamson, R. J. Harrison, J. R. Rehr,
      M. Dupuis, D. Silverstein, D. M. A. Smith, J. Nieplocha, V. Tipparaju,
      M. Krishnan, B. E. Van Kuiken, A. Vazquez-Mayagoitia, M. Swart, Q. Wu,
   T. Van Voorhis, A. A. Auer, M. Nooijen, L. D. Crosby, E. Brown, G. Cisneros,
     G. I. Fann, H. Fruchtl, J. Garza, K. Hirao, R. A. Kendall, J. A. Nichols,
       K. Tsemekhman, K. Wolinski, J. Anchell, D. E. Bernholdt, P. Borowski,
       T. Clark, D. Clerc, H. Dachsel, M. J. O. Deegan, K. Dyall, D. Elwood,
      E. Glendening, M. Gutowski, A. C. Hess, J. Jaffe, B. G. Johnson, J. Ju,
        R. Kobayashi, R. Kutteh, Z. Lin, R. Littlefield, X. Long, B. Meng,
      T. Nakajima, S. Niu, L. Pollack, M. Rosing, K. Glaesemann, G. Sandrone,
      M. Stave, H. Taylor, G. Thomas, J. H. van Lenthe, A. T. Wong, Z. Zhang.

 Total times  cpu:        3.7s     wall:        4.1s
