nohup: ignoring input
 argument  1 = test.nw
  NWChem w/ OpenMP: maximum threads =    1



============================== echo of input deck ==============================
#
# Test for CC, CI, MBPT codes in the TCE module
# Reference data obtained by an independent determinantal CC, CI, MBPT code are
#
# LCCD   -0.0505753360
# LCCSD  -0.0508915694
# CCD    -0.0498521356
# CCSD   -0.0501273286
# CCSDT  -0.0502322580
# CCSDTQ -0.0502556616
# QCISD  -0.0501452655
# CISD   -0.0495138383
# CISDT  -0.0496160908
# CISDTQ -0.0502556615
# MBPT2  -0.0358672469
# MBPT3  -0.0098015863
# MBPT4  -0.0030104405
#
# in units of hartree.
#
start tce_h2o

echo

geometry units bohr
H    0.000000000000000   1.079252144093028   1.474611055780858
O    0.000000000000000   0.000000000000000   0.000000000000000
H    0.000000000000000   1.079252144093028  -1.474611055780858
end

basis
H library 6-31G
O library 6-31G
end

scf
thresh 1.0e-10
tol2e 1.0e-10
singlet
rhf
end

tce
lccd
end

task tce energy

tce
lccsd
end

task tce energy

tce
ccd
end

task tce energy

tce
ccsd
end

task tce energy

tce
ccsdt
end

task tce energy

tce
ccsdtq
end

#task tce energy

tce
qcisd
end

task tce energy

tce
cisd
end

task tce energy

tce
cisdt
end

task tce energy

tce
cisdtq
end

#task tce energy

tce
mbpt2
end

task tce energy

tce
mbpt3
end

task tce energy

tce
mbpt4
end

#task tce energy
================================================================================


                                         
                                         


             Northwest Computational Chemistry Package (NWChem) 7.0.1
             --------------------------------------------------------


                    Environmental Molecular Sciences Laboratory
                       Pacific Northwest National Laboratory
                                Richland, WA 99352

                              Copyright (c) 1994-2020
                       Pacific Northwest National Laboratory
                            Battelle Memorial Institute

             NWChem is an open-source computational chemistry package
                        distributed under the terms of the
                      Educational Community License (ECL) 2.0
             A copy of the license is included with this distribution
                              in the LICENSE.TXT file

                                  ACKNOWLEDGMENT
                                  --------------

            This software and its documentation were developed at the
            EMSL at Pacific Northwest National Laboratory, a multiprogram
            national laboratory, operated for the U.S. Department of Energy
            by Battelle under Contract Number DE-AC05-76RL01830. Support
            for this work was provided by the Department of Energy Office
            of Biological and Environmental Research, Office of Basic
            Energy Sciences, and the Office of Advanced Scientific Computing.


           Job information
           ---------------

    hostname        = koothan
    program         = /hpc/home/kowalski/nwchem/bin/LINUX64/nwchem
    date            = Mon Apr 18 12:25:01 2022

    compiled        = Fri_Mar_25_14:43:37_2022
    source          = /hpc/home/kowalski/nwchem
    nwchem branch   = 7.0.0
    nwchem revision = nwchem_on_git-2069-ga5c152f2d
    ga revision     = 5.8.0
    use scalapack   = T
    input           = test.nw
    prefix          = tce_h2o.
    data base       = ./tce_h2o.db
    status          = startup
    nproc           =        1
    time left       =     -1s



           Memory information
           ------------------

    heap     =   13107200 doubles =    100.0 Mbytes
    stack    =   13107197 doubles =    100.0 Mbytes
    global   =   26214400 doubles =    200.0 Mbytes (distinct from heap & stack)
    total    =   52428797 doubles =    400.0 Mbytes
    verify   = yes
    hardfail = no 


           Directory information
           ---------------------

  0 permanent = .
  0 scratch   = .




                                NWChem Input Module
                                -------------------


 C2V symmetry detected

          ------
          auto-z
          ------
  no constraints, skipping    0.0000000000000000     
  no constraints, skipping    0.0000000000000000     


                             Geometry "geometry" -> ""
                             -------------------------

 Output coordinates in a.u. (scale by  1.000000000 to convert to a.u.)

  No.       Tag          Charge          X              Y              Z
 ---- ---------------- ---------- -------------- -------------- --------------
    1 H                    1.0000     1.47461106     0.00000000     0.86340172
    2 O                    8.0000     0.00000000     0.00000000    -0.21585043
    3 H                    1.0000    -1.47461106     0.00000000     0.86340172

      Atomic Mass 
      ----------- 

      H                  1.007825
      O                 15.994910


 Effective nuclear repulsion energy (a.u.)       9.0948490734

            Nuclear Dipole moment (a.u.) 
            ----------------------------
        X                 Y               Z
 ---------------- ---------------- ----------------
     0.0000000000     0.0000000000     0.0000000000

      Symmetry information
      --------------------

 Group name             C2v       
 Group number             16
 Group order               4
 No. of unique centers     2

      Symmetry unique atoms

     1    2



                                Z-matrix (autoz)
                                -------- 

 Units are Angstrom for bonds and degrees for angles

      Type          Name      I     J     K     L     M      Value
      ----------- --------  ----- ----- ----- ----- ----- ----------
    1 Stretch                  1     2                       0.96700
    2 Stretch                  2     3                       0.96700
    3 Bend                     1     2     3               107.60000


            XYZ format geometry
            -------------------
     3
 geometry
 H                     0.78033062     0.00000000     0.45689254
 O                     0.00000000     0.00000000    -0.11422314
 H                    -0.78033062     0.00000000     0.45689254

 ==============================================================================
                                internuclear distances
 ------------------------------------------------------------------------------
       center one      |      center two      | atomic units |       a.u.
 ------------------------------------------------------------------------------
    2 O                |   1 H                |     1.82737  |     1.82737
    3 H                |   2 O                |     1.82737  |     1.82737
 ------------------------------------------------------------------------------
                         number of included internuclear distances:          2
 ==============================================================================



 ==============================================================================
                                 internuclear angles
 ------------------------------------------------------------------------------
        center 1       |       center 2       |       center 3       |  degrees
 ------------------------------------------------------------------------------
    1 H                |   2 O                |   3 H                |   107.60
 ------------------------------------------------------------------------------
                            number of included internuclear angles:          1
 ==============================================================================



                      Basis "ao basis" -> "" (cartesian)
                      -----
  H (Hydrogen)
  ------------
            Exponent  Coefficients 
       -------------- ---------------------------------------------------------
  1 S  1.87311370E+01  0.033495
  1 S  2.82539370E+00  0.234727
  1 S  6.40121700E-01  0.813757

  2 S  1.61277800E-01  1.000000

  O (Oxygen)
  ----------
            Exponent  Coefficients 
       -------------- ---------------------------------------------------------
  1 S  5.48467170E+03  0.001831
  1 S  8.25234950E+02  0.013950
  1 S  1.88046960E+02  0.068445
  1 S  5.29645000E+01  0.232714
  1 S  1.68975700E+01  0.470193
  1 S  5.79963530E+00  0.358521

  2 S  1.55396160E+01 -0.110778
  2 S  3.59993360E+00 -0.148026
  2 S  1.01376180E+00  1.130767

  3 P  1.55396160E+01  0.070874
  3 P  3.59993360E+00  0.339753
  3 P  1.01376180E+00  0.727159

  4 S  2.70005800E-01  1.000000

  5 P  2.70005800E-01  1.000000



 Summary of "ao basis" -> "" (cartesian)
 ------------------------------------------------------------------------------
       Tag                 Description            Shells   Functions and Types
 ---------------- ------------------------------  ------  ---------------------
 H                           6-31G                   2        2   2s
 O                           6-31G                   5        9   3s2p


                                 NWChem SCF Module
                                 -----------------



  ao basis        = "ao basis"
  functions       =    13
  atoms           =     3
  closed shells   =     5
  open shells     =     0
  charge          =   0.00
  wavefunction    = RHF 
  input vectors   = atomic
  output vectors  = ./tce_h2o.movecs
  use symmetry    = T
  symmetry adapt  = T


 Summary of "ao basis" -> "ao basis" (cartesian)
 ------------------------------------------------------------------------------
       Tag                 Description            Shells   Functions and Types
 ---------------- ------------------------------  ------  ---------------------
 H                           6-31G                   2        2   2s
 O                           6-31G                   5        9   3s2p


      Symmetry analysis of basis
      --------------------------

        a1          7
        a2          0
        b1          4
        b2          2


 Forming initial guess at       0.4s


      Superposition of Atomic Density Guess
      -------------------------------------

 Sum of atomic energies:         -75.75081731

      Non-variational initial energy
      ------------------------------

 Total energy =     -75.897403
 1-e energy   =    -121.571787
 2-e energy   =      36.579535
 HOMO         =      -0.466042
 LUMO         =       0.112744


      Symmetry analysis of molecular orbitals - initial
      -------------------------------------------------

  Numbering of irreducible representations: 

     1 a1          2 a2          3 b1          4 b2      

  Orbital symmetries:

     1 a1          2 a1          3 b1          4 a1          5 b2      
     6 a1          7 b1          8 b1          9 a1         10 b2      
    11 a1         12 b1         13 a1      


 Starting SCF solution at       0.5s



 ----------------------------------------------
         Quadratically convergent ROHF

 Convergence threshold     :          1.000E-10
 Maximum no. of iterations :           30
 Final Fock-matrix accuracy:          1.000E-10
 ----------------------------------------------


              iter       energy          gnorm     gmax       time
             ----- ------------------- --------- --------- --------
                 1      -75.9485269334  8.00D-01  3.59D-01      0.1
                 2      -75.9816048377  1.95D-01  1.15D-01      0.1
                 3      -75.9844353476  2.52D-02  1.61D-02      0.1
                 4      -75.9845028443  1.88D-04  1.02D-04      0.2
                 5      -75.9845028464  5.84D-09  2.71D-09      0.2
                 6      -75.9845028464  2.43D-12  1.07D-12      0.3


       Final RHF  results 
       ------------------ 

         Total SCF energy =    -75.984502846360
      One-electron energy =   -122.818434866520
      Two-electron energy =     37.739082946756
 Nuclear repulsion energy =      9.094849073405

        Time for solution =      0.2s



       Symmetry analysis of molecular orbitals - final
       -----------------------------------------------

  Numbering of irreducible representations: 

     1 a1          2 a2          3 b1          4 b2      

  Orbital symmetries:

     1 a1          2 a1          3 b1          4 a1          5 b2      
     6 a1          7 b1          8 b1          9 a1         10 b2      
    11 a1         12 b1         13 a1      

             Final eigenvalues
             -----------------

              1      
    1  -20.5600
    2   -1.3478
    3   -0.7099
    4   -0.5532
    5   -0.4993
    6    0.2021
    7    0.2978
    8    1.0720
    9    1.1602
   10    1.1657
   11    1.2111
   12    1.3797
   13    1.6858

                       ROHF Final Molecular Orbital Analysis
                       -------------------------------------

 Vector    2  Occ=2.000000D+00  E=-1.347768D+00  Symmetry=a1
              MO Center=  1.8D-17,  2.5D-17,  6.8D-02, r^2= 5.1D-01
   Bfn.  Coefficient  Atom+Function         Bfn.  Coefficient  Atom+Function  
  ----- ------------  ---------------      ----- ------------  ---------------
     8      0.484454  2 O  s                  4      0.470063  2 O  s          
     3     -0.213046  2 O  s          

 Vector    3  Occ=2.000000D+00  E=-7.099110D-01  Symmetry=b1
              MO Center=  4.2D-17,  9.6D-35,  9.8D-02, r^2= 8.0D-01
   Bfn.  Coefficient  Atom+Function         Bfn.  Coefficient  Atom+Function  
  ----- ------------  ---------------      ----- ------------  ---------------
     5      0.503017  2 O  px                 9      0.270302  2 O  px         
     1      0.261825  1 H  s                 12     -0.261825  3 H  s          

 Vector    4  Occ=2.000000D+00  E=-5.532245D-01  Symmetry=a1
              MO Center=  3.2D-16, -1.1D-16, -2.1D-01, r^2= 6.8D-01
   Bfn.  Coefficient  Atom+Function         Bfn.  Coefficient  Atom+Function  
  ----- ------------  ---------------      ----- ------------  ---------------
     7      0.553558  2 O  pz                11      0.410108  2 O  pz         
     8     -0.296302  2 O  s                  4     -0.175874  2 O  s          

 Vector    5  Occ=2.000000D+00  E=-4.992766D-01  Symmetry=b2
              MO Center=  7.0D-31,  1.6D-15, -1.1D-01, r^2= 6.0D-01
   Bfn.  Coefficient  Atom+Function         Bfn.  Coefficient  Atom+Function  
  ----- ------------  ---------------      ----- ------------  ---------------
     6      0.641373  2 O  py                10      0.510268  2 O  py         

 Vector    6  Occ=0.000000D+00  E= 2.020976D-01  Symmetry=a1
              MO Center= -1.0D-14, -8.9D-15,  5.9D-01, r^2= 2.5D+00
   Bfn.  Coefficient  Atom+Function         Bfn.  Coefficient  Atom+Function  
  ----- ------------  ---------------      ----- ------------  ---------------
     8      1.171650  2 O  s                  2     -0.987772  1 H  s          
    13     -0.987772  3 H  s                 11      0.465228  2 O  pz         
     7      0.229460  2 O  pz         

 Vector    7  Occ=0.000000D+00  E= 2.977820D-01  Symmetry=b1
              MO Center=  9.4D-15, -1.4D-31,  5.9D-01, r^2= 2.7D+00
   Bfn.  Coefficient  Atom+Function         Bfn.  Coefficient  Atom+Function  
  ----- ------------  ---------------      ----- ------------  ---------------
     2      1.360495  1 H  s                 13     -1.360495  3 H  s          
     9     -0.827803  2 O  px                 5     -0.338733  2 O  px         

 Vector    8  Occ=0.000000D+00  E= 1.071983D+00  Symmetry=b1
              MO Center=  5.4D-16, -3.1D-33,  1.2D-01, r^2= 1.6D+00
   Bfn.  Coefficient  Atom+Function         Bfn.  Coefficient  Atom+Function  
  ----- ------------  ---------------      ----- ------------  ---------------
     1      0.984538  1 H  s                 12     -0.984538  3 H  s          
     9     -0.724569  2 O  px                 2     -0.501397  1 H  s          
    13      0.501397  3 H  s          

 Vector    9  Occ=0.000000D+00  E= 1.160243D+00  Symmetry=a1
              MO Center=  0.0D+00, -1.3D-15,  4.5D-01, r^2= 1.2D+00
   Bfn.  Coefficient  Atom+Function         Bfn.  Coefficient  Atom+Function  
  ----- ------------  ---------------      ----- ------------  ---------------
     1      0.942892  1 H  s                 12      0.942892  3 H  s          
     2     -0.550602  1 H  s                 13     -0.550602  3 H  s          
     7     -0.468154  2 O  pz                 4     -0.312645  2 O  s          

 Vector   10  Occ=0.000000D+00  E= 1.165685D+00  Symmetry=b2
              MO Center= -8.0D-29,  8.3D-14, -1.1D-01, r^2= 1.1D+00
   Bfn.  Coefficient  Atom+Function         Bfn.  Coefficient  Atom+Function  
  ----- ------------  ---------------      ----- ------------  ---------------
    10     -1.037146  2 O  py                 6      0.961607  2 O  py         

 Vector   11  Occ=0.000000D+00  E= 1.211129D+00  Symmetry=a1
              MO Center=  4.1D-16, -6.4D-14, -3.9D-01, r^2= 1.1D+00
   Bfn.  Coefficient  Atom+Function         Bfn.  Coefficient  Atom+Function  
  ----- ------------  ---------------      ----- ------------  ---------------
    11      1.192256  2 O  pz                 7     -0.861796  2 O  pz         
     4      0.345171  2 O  s                  1     -0.316501  1 H  s          
    12     -0.316501  3 H  s          

 Vector   12  Occ=0.000000D+00  E= 1.379725D+00  Symmetry=b1
              MO Center= -4.6D-16,  9.9D-32, -8.7D-02, r^2= 1.4D+00
   Bfn.  Coefficient  Atom+Function         Bfn.  Coefficient  Atom+Function  
  ----- ------------  ---------------      ----- ------------  ---------------
     9      1.574359  2 O  px                 5     -1.032554  2 O  px         
     2     -0.881237  1 H  s                 13      0.881237  3 H  s          

 Vector   13  Occ=0.000000D+00  E= 1.685806D+00  Symmetry=a1
              MO Center= -2.1D-16, -1.1D-14,  2.1D-01, r^2= 1.2D+00
   Bfn.  Coefficient  Atom+Function         Bfn.  Coefficient  Atom+Function  
  ----- ------------  ---------------      ----- ------------  ---------------
     8      2.717280  2 O  s                  4     -1.682114  2 O  s          
    11      0.803762  2 O  pz                 2     -0.612449  1 H  s          
    13     -0.612449  3 H  s                  1     -0.421313  1 H  s          
    12     -0.421313  3 H  s                  7     -0.200214  2 O  pz         


 center of mass
 --------------
 x =   0.00000000 y =   0.00000000 z =  -0.09506603

 moments of inertia (a.u.)
 ------------------
           2.085045551630           0.000000000000           0.000000000000
           0.000000000000           6.468031660328           0.000000000000
           0.000000000000           0.000000000000           4.382986108698

  Mulliken analysis of the total density
  --------------------------------------

    Atom       Charge   Shell Charges
 -----------   ------   -------------------------------------------------------
    1 H    1     0.60   0.50  0.10
    2 O    8     8.80   2.00  0.90  2.89  0.99  2.02
    3 H    1     0.60   0.50  0.10

       Multipole analysis of the density wrt the origin
       ------------------------------------------------

     L   x y z        total         open         nuclear
     -   - - -        -----         ----         -------
     0   0 0 0     -0.000000      0.000000     10.000000

     1   1 0 0     -0.000000      0.000000      0.000000
     1   0 1 0     -0.000000      0.000000      0.000000
     1   0 0 1      1.015077      0.000000      0.000000

     2   2 0 0     -3.007384      0.000000      4.348956
     2   1 1 0     -0.000000      0.000000      0.000000
     2   1 0 1      0.000000      0.000000      0.000000
     2   0 2 0     -5.375313      0.000000      0.000000
     2   0 1 1     -0.000000      0.000000      0.000000
     2   0 0 2     -4.624833      0.000000      1.863656

                   NWChem Extensible Many-Electron Theory Module
                   ---------------------------------------------

              ======================================================
                   This portion of the program was automatically
                  generated by a Tensor Contraction Engine (TCE).
                  The development of this portion of the program
                 and TCE was supported by US Department of Energy,
                Office of Science, Office of Basic Energy Science.
                      TCE is a product of Battelle and PNNL.
              Please cite: S.Hirata, J.Phys.Chem.A 107, 9887 (2003).
              ======================================================

            General Information
            -------------------
      Number of processors :     1
         Wavefunction type : Restricted Hartree-Fock
          No. of electrons :    10
           Alpha electrons :     5
            Beta electrons :     5
           No. of orbitals :    26
            Alpha orbitals :    13
             Beta orbitals :    13
        Alpha frozen cores :     0
         Beta frozen cores :     0
     Alpha frozen virtuals :     0
      Beta frozen virtuals :     0
         Spin multiplicity : singlet 
    Number of AO functions :    13
       Number of AO shells :     9
        Use of symmetry is : on 
      Symmetry adaption is : on 
         Schwarz screening : 0.10D-09

          Correlation Information
          -----------------------
          Calculation type : Linearized coupled-cluster doubles                          
   Perturbative correction : none                                                        
            Max iterations :      100
        Residual threshold : 0.10D-06
     T(0) DIIS level shift : 0.00D+00
     L(0) DIIS level shift : 0.00D+00
     T(1) DIIS level shift : 0.00D+00
     L(1) DIIS level shift : 0.00D+00
     T(R) DIIS level shift : 0.00D+00
     T(I) DIIS level shift : 0.00D+00
   CC-T/L Amplitude update :  5-th order DIIS
                I/O scheme : Global Array Library
        L-threshold :  0.10D-06
        EOM-threshold :  0.10D-06
 no EOMCCSD initial starts read in
 TCE RESTART OPTIONS
 READ_INT:   F
 WRITE_INT:  F
 READ_TA:    F
 WRITE_TA:   F
 READ_XA:    F
 WRITE_XA:   F
 READ_IN3:   F
 WRITE_IN3:  F
 SLICE:      F
 D4D5:       F
 quantumc:   F
 qrotation:  F
 pwtce:      F
 qducc:      F
 nacto:                         0
 nrotv:                         0
 nrot:                          0

            Memory Information
            ------------------
          Available GA space size is      26214231 doubles
          Available MA space size is      26213204 doubles

 Maximum block size        32 doubles

 tile_dim =      4

 Block   Spin    Irrep     Size     Offset   Alpha
 -------------------------------------------------
   1    alpha     a1     3 doubles       0       1
   2    alpha     b1     1 doubles       3       2
   3    alpha     b2     1 doubles       4       3
   4    beta      a1     3 doubles       5       1
   5    beta      b1     1 doubles       8       2
   6    beta      b2     1 doubles       9       3
   7    alpha     a1     4 doubles      10       7
   8    alpha     b1     3 doubles      14       8
   9    alpha     b2     1 doubles      17       9
  10    beta      a1     4 doubles      18       7
  11    beta      b1     3 doubles      22       8
  12    beta      b2     1 doubles      25       9

 Global array virtual files algorithm will be used

 Parallel file system coherency ......... OK

 Fock matrix recomputed
 1-e file size   =               69
 1-e file name   = ./tce_h2o.f1
 Cpu & wall time / sec            0.0            0.0

 tce_ao2e: fast2e=1
 half-transformed integrals in memory

 2-e (intermediate) file size =           63375
 2-e (intermediate) file name = ./tce_h2o.v2i
 Cpu & wall time / sec            0.0            0.0

 tce_mo2e: fast2e=1
 2-e integrals stored in memory

 2-e file size   =            12790
 2-e file name   = ./tce_h2o.v2
 Cpu & wall time / sec            0.0            0.0
 T2-number-of-boxes                   33

 t2 file size   =              827
 t2 file name   = ./tce_h2o.t2
 t2 file handle =       -999

 LCCD iterations
 --------------------------------------------------------
 Iter          Residuum       Correlation     Cpu    Wall
 --------------------------------------------------------
    1   0.0949377621009  -0.1294933525112     0.0     0.1
    2   0.0341641263223  -0.1310014393529     0.0     0.0
    3   0.0138870744371  -0.1339433198309     0.0     0.0
    4   0.0060418209175  -0.1348699306731     0.0     0.0
    5   0.0027176724569  -0.1352478226675     0.0     0.0
    6   0.0027176724569  -0.1352478226675     0.0     0.0
    7   0.0012517620198  -0.1354036179933     0.0     0.0
    8   0.0005867099019  -0.1354703563966     0.0     0.0
    9   0.0002788507076  -0.1354996223215     0.0     0.0
   10   0.0001340801048  -0.1355127023403     0.0     0.0
   11   0.0001340801048  -0.1355127023403     0.0     0.0
   12   0.0000651136389  -0.1355186364553     0.0     0.0
   13   0.0000318937029  -0.1355213620098     0.0     0.0
   14   0.0000157380981  -0.1355226269122     0.0     0.0
   15   0.0000078154932  -0.1355232192137     0.0     0.0
   16   0.0000078154932  -0.1355232192137     0.0     0.0
   17   0.0000039021619  -0.1355234987536     0.0     0.0
   18   0.0000019571800  -0.1355236316147     0.0     0.0
   19   0.0000009853912  -0.1355236951645     0.0     0.0
   20   0.0000004976888  -0.1355237257389     0.0     0.0
   21   0.0000004976888  -0.1355237257389     0.0     0.0
   22   0.0000002520220  -0.1355237405273     0.0     0.0
   23   0.0000001278934  -0.1355237477156     0.0     0.0
   24   0.0000000650157  -0.1355237512258     0.0     0.0
 --------------------------------------------------------
 Iterations converged
 LCCD correlation energy / hartree =        -0.135523751225755
 LCCD total energy / hartree       =       -76.120026597585351

 Doubles contributions

 Task  times  cpu:        0.8s     wall:        1.2s


                                NWChem Input Module
                                -------------------


                                 NWChem SCF Module
                                 -----------------



  ao basis        = "ao basis"
  functions       =    13
  atoms           =     3
  closed shells   =     5
  open shells     =     0
  charge          =   0.00
  wavefunction    = RHF 
  input vectors   = ./tce_h2o.movecs
  output vectors  = ./tce_h2o.movecs
  use symmetry    = T
  symmetry adapt  = T


 Summary of "ao basis" -> "ao basis" (cartesian)
 ------------------------------------------------------------------------------
       Tag                 Description            Shells   Functions and Types
 ---------------- ------------------------------  ------  ---------------------
 H                           6-31G                   2        2   2s
 O                           6-31G                   5        9   3s2p


      Symmetry analysis of basis
      --------------------------

        a1          7
        a2          0
        b1          4
        b2          2


  The SCF is already converged 

         Total SCF energy =    -75.984502846360

                   NWChem Extensible Many-Electron Theory Module
                   ---------------------------------------------

              ======================================================
                   This portion of the program was automatically
                  generated by a Tensor Contraction Engine (TCE).
                  The development of this portion of the program
                 and TCE was supported by US Department of Energy,
                Office of Science, Office of Basic Energy Science.
                      TCE is a product of Battelle and PNNL.
              Please cite: S.Hirata, J.Phys.Chem.A 107, 9887 (2003).
              ======================================================

            General Information
            -------------------
      Number of processors :     1
         Wavefunction type : Restricted Hartree-Fock
          No. of electrons :    10
           Alpha electrons :     5
            Beta electrons :     5
           No. of orbitals :    26
            Alpha orbitals :    13
             Beta orbitals :    13
        Alpha frozen cores :     0
         Beta frozen cores :     0
     Alpha frozen virtuals :     0
      Beta frozen virtuals :     0
         Spin multiplicity : singlet 
    Number of AO functions :    13
       Number of AO shells :     9
        Use of symmetry is : on 
      Symmetry adaption is : on 
         Schwarz screening : 0.10D-09

          Correlation Information
          -----------------------
          Calculation type : Linearized coupled-cluster singles & doubles                
   Perturbative correction : none                                                        
            Max iterations :      100
        Residual threshold : 0.10D-06
     T(0) DIIS level shift : 0.00D+00
     L(0) DIIS level shift : 0.00D+00
     T(1) DIIS level shift : 0.00D+00
     L(1) DIIS level shift : 0.00D+00
     T(R) DIIS level shift : 0.00D+00
     T(I) DIIS level shift : 0.00D+00
   CC-T/L Amplitude update :  5-th order DIIS
                I/O scheme : Global Array Library
        L-threshold :  0.10D-06
        EOM-threshold :  0.10D-06
 no EOMCCSD initial starts read in
 TCE RESTART OPTIONS
 READ_INT:   F
 WRITE_INT:  F
 READ_TA:    F
 WRITE_TA:   F
 READ_XA:    F
 WRITE_XA:   F
 READ_IN3:   F
 WRITE_IN3:  F
 SLICE:      F
 D4D5:       F
 quantumc:   F
 qrotation:  F
 pwtce:      F
 qducc:      F
 nacto:                         0
 nrotv:                         0
 nrot:                          0

            Memory Information
            ------------------
          Available GA space size is      26214231 doubles
          Available MA space size is      26213204 doubles

 Maximum block size        32 doubles

 tile_dim =      4

 Block   Spin    Irrep     Size     Offset   Alpha
 -------------------------------------------------
   1    alpha     a1     3 doubles       0       1
   2    alpha     b1     1 doubles       3       2
   3    alpha     b2     1 doubles       4       3
   4    beta      a1     3 doubles       5       1
   5    beta      b1     1 doubles       8       2
   6    beta      b2     1 doubles       9       3
   7    alpha     a1     4 doubles      10       7
   8    alpha     b1     3 doubles      14       8
   9    alpha     b2     1 doubles      17       9
  10    beta      a1     4 doubles      18       7
  11    beta      b1     3 doubles      22       8
  12    beta      b2     1 doubles      25       9

 Global array virtual files algorithm will be used

 Parallel file system coherency ......... OK

 Fock matrix recomputed
 1-e file size   =               69
 1-e file name   = ./tce_h2o.f1
 Cpu & wall time / sec            0.0            0.0

 tce_ao2e: fast2e=1
 half-transformed integrals in memory

 2-e (intermediate) file size =           63375
 2-e (intermediate) file name = ./tce_h2o.v2i
 Cpu & wall time / sec            0.0            0.0

 tce_mo2e: fast2e=1
 2-e integrals stored in memory

 2-e file size   =            12790
 2-e file name   = ./tce_h2o.v2
 Cpu & wall time / sec            0.0            0.0
 T1-number-of-tasks                    3

 t1 file size   =               16
 t1 file name   = ./tce_h2o.t1
 t1 file handle =       -999
 T2-number-of-boxes                   33

 t2 file size   =              827
 t2 file name   = ./tce_h2o.t2
 t2 file handle =       -996

 LCCSD iterations
 --------------------------------------------------------
 Iter          Residuum       Correlation     Cpu    Wall
 --------------------------------------------------------
    1   0.0949377621009  -0.1294933525112     0.0     0.0
    2   0.0361678152836  -0.1310014393529     0.0     0.0
    3   0.0149143818279  -0.1345730391747     0.0     0.0
    4   0.0067489659879  -0.1355991916182     0.0     0.0
    5   0.0031370863382  -0.1360593639420     0.0     0.0
 MICROCYCLE DIIS UPDATE:                    5                    5
    6   0.0003780164878  -0.1363883522568     0.0     0.0
    7   0.0002360856778  -0.1364081960323     0.0     0.0
    8   0.0001231552010  -0.1364107992891     0.0     0.0
    9   0.0000786279704  -0.1364113849886     0.0     0.0
   10   0.0000481834946  -0.1364120733930     0.0     0.0
 MICROCYCLE DIIS UPDATE:                   10                    5
   11   0.0000044182912  -0.1364134042717     0.0     0.0
   12   0.0000017492125  -0.1364132653618     0.0     0.0
   13   0.0000008393814  -0.1364133590297     0.0     0.0
   14   0.0000004451008  -0.1364133737537     0.0     0.0
   15   0.0000002404988  -0.1364133809212     0.0     0.0
 MICROCYCLE DIIS UPDATE:                   15                    5
   16   0.0000000371103  -0.1364133832750     0.0     0.0
 --------------------------------------------------------
 Iterations converged
 LCCSD correlation energy / hartree =        -0.136413383274994
 LCCSD total energy / hartree       =       -76.120916229634588

 Singles contributions

 Doubles contributions

 Task  times  cpu:        0.5s     wall:        0.6s


                                NWChem Input Module
                                -------------------


                                 NWChem SCF Module
                                 -----------------



  ao basis        = "ao basis"
  functions       =    13
  atoms           =     3
  closed shells   =     5
  open shells     =     0
  charge          =   0.00
  wavefunction    = RHF 
  input vectors   = ./tce_h2o.movecs
  output vectors  = ./tce_h2o.movecs
  use symmetry    = T
  symmetry adapt  = T


 Summary of "ao basis" -> "ao basis" (cartesian)
 ------------------------------------------------------------------------------
       Tag                 Description            Shells   Functions and Types
 ---------------- ------------------------------  ------  ---------------------
 H                           6-31G                   2        2   2s
 O                           6-31G                   5        9   3s2p


      Symmetry analysis of basis
      --------------------------

        a1          7
        a2          0
        b1          4
        b2          2


  The SCF is already converged 

         Total SCF energy =    -75.984502846360

                   NWChem Extensible Many-Electron Theory Module
                   ---------------------------------------------

              ======================================================
                   This portion of the program was automatically
                  generated by a Tensor Contraction Engine (TCE).
                  The development of this portion of the program
                 and TCE was supported by US Department of Energy,
                Office of Science, Office of Basic Energy Science.
                      TCE is a product of Battelle and PNNL.
              Please cite: S.Hirata, J.Phys.Chem.A 107, 9887 (2003).
              ======================================================

            General Information
            -------------------
      Number of processors :     1
         Wavefunction type : Restricted Hartree-Fock
          No. of electrons :    10
           Alpha electrons :     5
            Beta electrons :     5
           No. of orbitals :    26
            Alpha orbitals :    13
             Beta orbitals :    13
        Alpha frozen cores :     0
         Beta frozen cores :     0
     Alpha frozen virtuals :     0
      Beta frozen virtuals :     0
         Spin multiplicity : singlet 
    Number of AO functions :    13
       Number of AO shells :     9
        Use of symmetry is : on 
      Symmetry adaption is : on 
         Schwarz screening : 0.10D-09

          Correlation Information
          -----------------------
          Calculation type : Coupled-cluster doubles                                     
   Perturbative correction : none                                                        
            Max iterations :      100
        Residual threshold : 0.10D-06
     T(0) DIIS level shift : 0.00D+00
     L(0) DIIS level shift : 0.00D+00
     T(1) DIIS level shift : 0.00D+00
     L(1) DIIS level shift : 0.00D+00
     T(R) DIIS level shift : 0.00D+00
     T(I) DIIS level shift : 0.00D+00
   CC-T/L Amplitude update :  5-th order DIIS
                I/O scheme : Global Array Library
        L-threshold :  0.10D-06
        EOM-threshold :  0.10D-06
 no EOMCCSD initial starts read in
 TCE RESTART OPTIONS
 READ_INT:   F
 WRITE_INT:  F
 READ_TA:    F
 WRITE_TA:   F
 READ_XA:    F
 WRITE_XA:   F
 READ_IN3:   F
 WRITE_IN3:  F
 SLICE:      F
 D4D5:       F
 quantumc:   F
 qrotation:  F
 pwtce:      F
 qducc:      F
 nacto:                         0
 nrotv:                         0
 nrot:                          0

            Memory Information
            ------------------
          Available GA space size is      26214231 doubles
          Available MA space size is      26213204 doubles

 Maximum block size        32 doubles

 tile_dim =      4

 Block   Spin    Irrep     Size     Offset   Alpha
 -------------------------------------------------
   1    alpha     a1     3 doubles       0       1
   2    alpha     b1     1 doubles       3       2
   3    alpha     b2     1 doubles       4       3
   4    beta      a1     3 doubles       5       1
   5    beta      b1     1 doubles       8       2
   6    beta      b2     1 doubles       9       3
   7    alpha     a1     4 doubles      10       7
   8    alpha     b1     3 doubles      14       8
   9    alpha     b2     1 doubles      17       9
  10    beta      a1     4 doubles      18       7
  11    beta      b1     3 doubles      22       8
  12    beta      b2     1 doubles      25       9

 Global array virtual files algorithm will be used

 Parallel file system coherency ......... OK

 Fock matrix recomputed
 1-e file size   =               69
 1-e file name   = ./tce_h2o.f1
 Cpu & wall time / sec            0.0            0.0

 tce_ao2e: fast2e=1
 half-transformed integrals in memory

 2-e (intermediate) file size =           63375
 2-e (intermediate) file name = ./tce_h2o.v2i
 Cpu & wall time / sec            0.0            0.0

 tce_mo2e: fast2e=1
 2-e integrals stored in memory

 2-e file size   =            12790
 2-e file name   = ./tce_h2o.v2
 Cpu & wall time / sec            0.0            0.0
 T2-number-of-boxes                   33

 t2 file size   =              827
 t2 file name   = ./tce_h2o.t2
 t2 file handle =       -999

 CCD iterations
 --------------------------------------------------------
 Iter          Residuum       Correlation     Cpu    Wall
 --------------------------------------------------------
    1   0.0894514347230  -0.1294933525112     0.0     0.0
    2   0.0304042063252  -0.1317055168688     0.0     0.0
    3   0.0116948826070  -0.1340870369162     0.0     0.0
    4   0.0047859219060  -0.1348486117694     0.0     0.0
    5   0.0020257236586  -0.1351362402315     0.0     0.0
    6   0.0020257236586  -0.1351362402315     0.0     0.0
    7   0.0008766425335  -0.1352482950145     0.0     0.0
    8   0.0003853561494  -0.1352935111695     0.0     0.0
    9   0.0001714044770  -0.1353121874322     0.0     0.1
   10   0.0000769530992  -0.1353200456666     0.0     0.0
   11   0.0000769530992  -0.1353200456666     0.0     0.0
   12   0.0000348116297  -0.1353233995705     0.0     0.0
   13   0.0000158473393  -0.1353248476445     0.0     0.0
   14   0.0000072523682  -0.1353254788184     0.0     0.0
   15   0.0000033337488  -0.1353257561354     0.0     0.0
   16   0.0000033337488  -0.1353257561354     0.0     0.0
   17   0.0000015381999  -0.1353258788159     0.0     0.0
   18   0.0000007119734  -0.1353259334120     0.0     0.0
   19   0.0000003304218  -0.1353259578366     0.0     0.0
   20   0.0000001536891  -0.1353259688146     0.0     0.0
   21   0.0000001536891  -0.1353259688146     0.0     0.0
   22   0.0000000716195  -0.1353259737695     0.0     0.0
 --------------------------------------------------------
 Iterations converged
 CCD correlation energy / hartree =        -0.135325973769538
 CCD total energy / hartree       =       -76.119828820129129

 Doubles contributions

 Task  times  cpu:        0.8s     wall:        0.9s


                                NWChem Input Module
                                -------------------


                                 NWChem SCF Module
                                 -----------------



  ao basis        = "ao basis"
  functions       =    13
  atoms           =     3
  closed shells   =     5
  open shells     =     0
  charge          =   0.00
  wavefunction    = RHF 
  input vectors   = ./tce_h2o.movecs
  output vectors  = ./tce_h2o.movecs
  use symmetry    = T
  symmetry adapt  = T


 Summary of "ao basis" -> "ao basis" (cartesian)
 ------------------------------------------------------------------------------
       Tag                 Description            Shells   Functions and Types
 ---------------- ------------------------------  ------  ---------------------
 H                           6-31G                   2        2   2s
 O                           6-31G                   5        9   3s2p


      Symmetry analysis of basis
      --------------------------

        a1          7
        a2          0
        b1          4
        b2          2


  The SCF is already converged 

         Total SCF energy =    -75.984502846360

                   NWChem Extensible Many-Electron Theory Module
                   ---------------------------------------------

              ======================================================
                   This portion of the program was automatically
                  generated by a Tensor Contraction Engine (TCE).
                  The development of this portion of the program
                 and TCE was supported by US Department of Energy,
                Office of Science, Office of Basic Energy Science.
                      TCE is a product of Battelle and PNNL.
              Please cite: S.Hirata, J.Phys.Chem.A 107, 9887 (2003).
              ======================================================

            General Information
            -------------------
      Number of processors :     1
         Wavefunction type : Restricted Hartree-Fock
          No. of electrons :    10
           Alpha electrons :     5
            Beta electrons :     5
           No. of orbitals :    26
            Alpha orbitals :    13
             Beta orbitals :    13
        Alpha frozen cores :     0
         Beta frozen cores :     0
     Alpha frozen virtuals :     0
      Beta frozen virtuals :     0
         Spin multiplicity : singlet 
    Number of AO functions :    13
       Number of AO shells :     9
        Use of symmetry is : on 
      Symmetry adaption is : on 
         Schwarz screening : 0.10D-09

          Correlation Information
          -----------------------
          Calculation type : Coupled-cluster singles & doubles                           
   Perturbative correction : none                                                        
            Max iterations :      100
        Residual threshold : 0.10D-06
     T(0) DIIS level shift : 0.00D+00
     L(0) DIIS level shift : 0.00D+00
     T(1) DIIS level shift : 0.00D+00
     L(1) DIIS level shift : 0.00D+00
     T(R) DIIS level shift : 0.00D+00
     T(I) DIIS level shift : 0.00D+00
   CC-T/L Amplitude update :  5-th order DIIS
                I/O scheme : Global Array Library
        L-threshold :  0.10D-06
        EOM-threshold :  0.10D-06
 no EOMCCSD initial starts read in
 TCE RESTART OPTIONS
 READ_INT:   F
 WRITE_INT:  F
 READ_TA:    F
 WRITE_TA:   F
 READ_XA:    F
 WRITE_XA:   F
 READ_IN3:   F
 WRITE_IN3:  F
 SLICE:      F
 D4D5:       F
 quantumc:   F
 qrotation:  F
 pwtce:      F
 qducc:      F
 nacto:                         0
 nrotv:                         0
 nrot:                          0

            Memory Information
            ------------------
          Available GA space size is      26214231 doubles
          Available MA space size is      26213204 doubles

 Maximum block size        32 doubles

 tile_dim =      4

 Block   Spin    Irrep     Size     Offset   Alpha
 -------------------------------------------------
   1    alpha     a1     3 doubles       0       1
   2    alpha     b1     1 doubles       3       2
   3    alpha     b2     1 doubles       4       3
   4    beta      a1     3 doubles       5       1
   5    beta      b1     1 doubles       8       2
   6    beta      b2     1 doubles       9       3
   7    alpha     a1     4 doubles      10       7
   8    alpha     b1     3 doubles      14       8
   9    alpha     b2     1 doubles      17       9
  10    beta      a1     4 doubles      18       7
  11    beta      b1     3 doubles      22       8
  12    beta      b2     1 doubles      25       9

 Global array virtual files algorithm will be used

 Parallel file system coherency ......... OK

 Fock matrix recomputed
 1-e file size   =               69
 1-e file name   = ./tce_h2o.f1
 Cpu & wall time / sec            0.0            0.0

 tce_ao2e: fast2e=1
 half-transformed integrals in memory

 2-e (intermediate) file size =           63375
 2-e (intermediate) file name = ./tce_h2o.v2i
 Cpu & wall time / sec            0.0            0.0

 tce_mo2e: fast2e=1
 2-e integrals stored in memory

 2-e file size   =            12790
 2-e file name   = ./tce_h2o.v2
 Cpu & wall time / sec            0.0            0.0
 T1-number-of-tasks                    3

 t1 file size   =               16
 t1 file name   = ./tce_h2o.t1
 t1 file handle =       -999
 T2-number-of-boxes                   33

 t2 file size   =              827
 t2 file name   = ./tce_h2o.t2
 t2 file handle =       -996
CCSD iterations
 ---------------------------------------------------------
 Iter          Residuum       Correlation     Cpu    Wall 
 ---------------------------------------------------------
NEW TASK SCHEDULING
CCSD_T1_NTS --- OK
CCSD_T2_NTS --- OK
    1   0.0897961386451  -0.1294767954501     0.1     0.1
    2   0.0310708859239  -0.1322055213461     0.0     0.1
    3   0.0122332092165  -0.1346867433773     0.0     0.1
    4   0.0051220149248  -0.1354890608800     0.0     0.1
    5   0.0022125203849  -0.1358104470217     0.0     0.1
 MICROCYCLE DIIS UPDATE:                    5                    5
    6   0.0001765433332  -0.1360268118788     0.1     0.1
    7   0.0000798034333  -0.1360334823159     0.1     0.1
    8   0.0000355483860  -0.1360341587179     0.1     0.1
    9   0.0000194388439  -0.1360341359088     0.0     0.1
   10   0.0000103482118  -0.1360342448905     0.1     0.1
 MICROCYCLE DIIS UPDATE:                   10                    5
   11   0.0000011796878  -0.1360344467648     0.1     0.1
   12   0.0000004160795  -0.1360344088420     0.1     0.1
   13   0.0000001888432  -0.1360344248866     0.0     0.1
   14   0.0000000958228  -0.1360344272542     0.0     0.1
 -----------------------------------------------------------------
 Iterations converged
 CCSD correlation energy / hartree =        -0.136034427254232
 CCSD total energy / hartree       =       -76.120537273613820

 Singles contributions

 Doubles contributions

 Task  times  cpu:        0.8s     wall:        0.9s


                                NWChem Input Module
                                -------------------


                                 NWChem SCF Module
                                 -----------------



  ao basis        = "ao basis"
  functions       =    13
  atoms           =     3
  closed shells   =     5
  open shells     =     0
  charge          =   0.00
  wavefunction    = RHF 
  input vectors   = ./tce_h2o.movecs
  output vectors  = ./tce_h2o.movecs
  use symmetry    = T
  symmetry adapt  = T


 Summary of "ao basis" -> "ao basis" (cartesian)
 ------------------------------------------------------------------------------
       Tag                 Description            Shells   Functions and Types
 ---------------- ------------------------------  ------  ---------------------
 H                           6-31G                   2        2   2s
 O                           6-31G                   5        9   3s2p


      Symmetry analysis of basis
      --------------------------

        a1          7
        a2          0
        b1          4
        b2          2


  The SCF is already converged 

         Total SCF energy =    -75.984502846360

                   NWChem Extensible Many-Electron Theory Module
                   ---------------------------------------------

              ======================================================
                   This portion of the program was automatically
                  generated by a Tensor Contraction Engine (TCE).
                  The development of this portion of the program
                 and TCE was supported by US Department of Energy,
                Office of Science, Office of Basic Energy Science.
                      TCE is a product of Battelle and PNNL.
              Please cite: S.Hirata, J.Phys.Chem.A 107, 9887 (2003).
              ======================================================

            General Information
            -------------------
      Number of processors :     1
         Wavefunction type : Restricted Hartree-Fock
          No. of electrons :    10
           Alpha electrons :     5
            Beta electrons :     5
           No. of orbitals :    26
            Alpha orbitals :    13
             Beta orbitals :    13
        Alpha frozen cores :     0
         Beta frozen cores :     0
     Alpha frozen virtuals :     0
      Beta frozen virtuals :     0
         Spin multiplicity : singlet 
    Number of AO functions :    13
       Number of AO shells :     9
        Use of symmetry is : on 
      Symmetry adaption is : on 
         Schwarz screening : 0.10D-09

          Correlation Information
          -----------------------
          Calculation type : Coupled-cluster singles, doubles, & triples                 
   Perturbative correction : none                                                        
            Max iterations :      100
        Residual threshold : 0.10D-06
     T(0) DIIS level shift : 0.00D+00
     L(0) DIIS level shift : 0.00D+00
     T(1) DIIS level shift : 0.00D+00
     L(1) DIIS level shift : 0.00D+00
     T(R) DIIS level shift : 0.00D+00
     T(I) DIIS level shift : 0.00D+00
   CC-T/L Amplitude update :  5-th order DIIS
                I/O scheme : Global Array Library
        L-threshold :  0.10D-06
        EOM-threshold :  0.10D-06
 no EOMCCSD initial starts read in
 TCE RESTART OPTIONS
 READ_INT:   F
 WRITE_INT:  F
 READ_TA:    F
 WRITE_TA:   F
 READ_XA:    F
 WRITE_XA:   F
 READ_IN3:   F
 WRITE_IN3:  F
 SLICE:      F
 D4D5:       F
 quantumc:   F
 qrotation:  F
 pwtce:      F
 qducc:      F
 nacto:                         0
 nrotv:                         0
 nrot:                          0

            Memory Information
            ------------------
          Available GA space size is      26214231 doubles
          Available MA space size is      26213204 doubles

 Maximum block size        20 doubles

 tile_dim =      4

 Block   Spin    Irrep     Size     Offset   Alpha
 -------------------------------------------------
   1    alpha     a1     3 doubles       0       1
   2    alpha     b1     1 doubles       3       2
   3    alpha     b2     1 doubles       4       3
   4    beta      a1     3 doubles       5       1
   5    beta      b1     1 doubles       8       2
   6    beta      b2     1 doubles       9       3
   7    alpha     a1     4 doubles      10       7
   8    alpha     b1     3 doubles      14       8
   9    alpha     b2     1 doubles      17       9
  10    beta      a1     4 doubles      18       7
  11    beta      b1     3 doubles      22       8
  12    beta      b2     1 doubles      25       9

 Global array virtual files algorithm will be used

 Parallel file system coherency ......... OK

 Fock matrix recomputed
 1-e file size   =               69
 1-e file name   = ./tce_h2o.f1
 Cpu & wall time / sec            0.0            0.0

 tce_ao2e: fast2e=1
 half-transformed integrals in memory

 2-e (intermediate) file size =           63375
 2-e (intermediate) file name = ./tce_h2o.v2i
 Cpu & wall time / sec            0.0            0.0

 tce_mo2e: fast2e=1
 2-e integrals stored in memory

 2-e file size   =            12790
 2-e file name   = ./tce_h2o.v2
 Cpu & wall time / sec            0.0            0.0
 T1-number-of-tasks                    3

 t1 file size   =               16
 t1 file name   = ./tce_h2o.t1
 t1 file handle =       -999
 T2-number-of-boxes                   33

 t2 file size   =              827
 t2 file name   = ./tce_h2o.t2
 t2 file handle =       -996

 t3 file size   =            24052
 t3 file name   = ./tce_h2o.t3

 CCSDT iterations
 --------------------------------------------------------
 Iter          Residuum       Correlation     Cpu    Wall
 --------------------------------------------------------
    1   0.1941544647642  -0.1294933525112     0.8     1.0
    2   0.0372448507474  -0.1316889598077     0.8     1.0
    3   0.0167827205979  -0.1355369604999     0.8     1.0
    4   0.0062560033452  -0.1364126460073     0.8     1.0
    5   0.0030477072213  -0.1368582374952     0.8     1.0
 MICROCYCLE DIIS UPDATE:                    5                    5
    6   0.0010609942659  -0.1371310260557     0.8     1.0
    7   0.0003883232223  -0.1371372692029     0.8     1.0
    8   0.0001993111228  -0.1371380830253     0.8     1.0
    9   0.0000982432980  -0.1371393121449     0.8     1.0
   10   0.0000559458149  -0.1371399235097     0.8     1.0
 MICROCYCLE DIIS UPDATE:                   10                    5
   11   0.0000111313745  -0.1371407644972     0.8     1.0
   12   0.0000031456681  -0.1371408456765     0.8     1.0
   13   0.0000016930975  -0.1371409607305     0.9     1.0
   14   0.0000007164219  -0.1371409709795     0.8     1.0
   15   0.0000004281910  -0.1371409822858     0.8     1.0
 MICROCYCLE DIIS UPDATE:                   15                    5
   16   0.0000001330085  -0.1371409861560     0.8     1.0
   17   0.0000000435777  -0.1371409879247     0.8     0.9
 --------------------------------------------------------
 Iterations converged
 CCSDT correlation energy / hartree =        -0.137140987924653
 CCSDT total energy / hartree       =       -76.121643834284242

 Singles contributions

 Doubles contributions

 Task  times  cpu:       14.3s     wall:       16.7s


                                NWChem Input Module
                                -------------------


                                 NWChem SCF Module
                                 -----------------



  ao basis        = "ao basis"
  functions       =    13
  atoms           =     3
  closed shells   =     5
  open shells     =     0
  charge          =   0.00
  wavefunction    = RHF 
  input vectors   = ./tce_h2o.movecs
  output vectors  = ./tce_h2o.movecs
  use symmetry    = T
  symmetry adapt  = T


 Summary of "ao basis" -> "ao basis" (cartesian)
 ------------------------------------------------------------------------------
       Tag                 Description            Shells   Functions and Types
 ---------------- ------------------------------  ------  ---------------------
 H                           6-31G                   2        2   2s
 O                           6-31G                   5        9   3s2p


      Symmetry analysis of basis
      --------------------------

        a1          7
        a2          0
        b1          4
        b2          2


  The SCF is already converged 

         Total SCF energy =    -75.984502846360

                   NWChem Extensible Many-Electron Theory Module
                   ---------------------------------------------

              ======================================================
                   This portion of the program was automatically
                  generated by a Tensor Contraction Engine (TCE).
                  The development of this portion of the program
                 and TCE was supported by US Department of Energy,
                Office of Science, Office of Basic Energy Science.
                      TCE is a product of Battelle and PNNL.
              Please cite: S.Hirata, J.Phys.Chem.A 107, 9887 (2003).
              ======================================================

            General Information
            -------------------
      Number of processors :     1
         Wavefunction type : Restricted Hartree-Fock
          No. of electrons :    10
           Alpha electrons :     5
            Beta electrons :     5
           No. of orbitals :    26
            Alpha orbitals :    13
             Beta orbitals :    13
        Alpha frozen cores :     0
         Beta frozen cores :     0
     Alpha frozen virtuals :     0
      Beta frozen virtuals :     0
         Spin multiplicity : singlet 
    Number of AO functions :    13
       Number of AO shells :     9
        Use of symmetry is : on 
      Symmetry adaption is : on 
         Schwarz screening : 0.10D-09

          Correlation Information
          -----------------------
          Calculation type : Quadratic configuration interaction singles & doubles       
   Perturbative correction : none                                                        
            Max iterations :      100
        Residual threshold : 0.10D-06
     T(0) DIIS level shift : 0.00D+00
     L(0) DIIS level shift : 0.00D+00
     T(1) DIIS level shift : 0.00D+00
     L(1) DIIS level shift : 0.00D+00
     T(R) DIIS level shift : 0.00D+00
     T(I) DIIS level shift : 0.00D+00
   CC-T/L Amplitude update :  5-th order DIIS
                I/O scheme : Global Array Library
        L-threshold :  0.10D-06
        EOM-threshold :  0.10D-06
 no EOMCCSD initial starts read in
 TCE RESTART OPTIONS
 READ_INT:   F
 WRITE_INT:  F
 READ_TA:    F
 WRITE_TA:   F
 READ_XA:    F
 WRITE_XA:   F
 READ_IN3:   F
 WRITE_IN3:  F
 SLICE:      F
 D4D5:       F
 quantumc:   F
 qrotation:  F
 pwtce:      F
 qducc:      F
 nacto:                         0
 nrotv:                         0
 nrot:                          0

            Memory Information
            ------------------
          Available GA space size is      26214231 doubles
          Available MA space size is      26213204 doubles

 Maximum block size        32 doubles

 tile_dim =      4

 Block   Spin    Irrep     Size     Offset   Alpha
 -------------------------------------------------
   1    alpha     a1     3 doubles       0       1
   2    alpha     b1     1 doubles       3       2
   3    alpha     b2     1 doubles       4       3
   4    beta      a1     3 doubles       5       1
   5    beta      b1     1 doubles       8       2
   6    beta      b2     1 doubles       9       3
   7    alpha     a1     4 doubles      10       7
   8    alpha     b1     3 doubles      14       8
   9    alpha     b2     1 doubles      17       9
  10    beta      a1     4 doubles      18       7
  11    beta      b1     3 doubles      22       8
  12    beta      b2     1 doubles      25       9

 Global array virtual files algorithm will be used

 Parallel file system coherency ......... OK

 Fock matrix recomputed
 1-e file size   =               69
 1-e file name   = ./tce_h2o.f1
 Cpu & wall time / sec            0.0            0.0

 tce_ao2e: fast2e=1
 half-transformed integrals in memory

 2-e (intermediate) file size =           63375
 2-e (intermediate) file name = ./tce_h2o.v2i
 Cpu & wall time / sec            0.0            0.0

 tce_mo2e: fast2e=1
 2-e integrals stored in memory

 2-e file size   =            12790
 2-e file name   = ./tce_h2o.v2
 Cpu & wall time / sec            0.0            0.0
 T1-number-of-tasks                    3

 t1 file size   =               16
 t1 file name   = ./tce_h2o.t1
 t1 file handle =       -999
 T2-number-of-boxes                   33

 t2 file size   =              827
 t2 file name   = ./tce_h2o.t2
 t2 file handle =       -996

 QCISD iterations
 --------------------------------------------------------
 Iter          Residuum       Correlation     Cpu    Wall
 --------------------------------------------------------
    1   0.0894514347230  -0.1294933525112     0.0     0.0
    2   0.0323926162521  -0.1317055168688     0.0     0.0
    3   0.0126594337629  -0.1347167562600     0.0     0.0
    4   0.0053894116200  -0.1355775517447     0.0     0.0
    5   0.0023510873588  -0.1359342272780     0.0     0.0
 MICROCYCLE DIIS UPDATE:                    5                    5
    6   0.0002629492493  -0.1361635751058     0.0     0.0
    7   0.0001458572255  -0.1361768773315     0.0     0.0
    8   0.0000688412470  -0.1361783629094     0.0     0.0
    9   0.0000408864934  -0.1361785898435     0.0     0.0
   10   0.0000230475973  -0.1361788930933     0.0     0.0
 MICROCYCLE DIIS UPDATE:                   10                    5
   11   0.0000019199303  -0.1361793918449     0.0     0.0
   12   0.0000006810757  -0.1361793286529     0.0     0.0
   13   0.0000002943768  -0.1361793639579     0.0     0.0
   14   0.0000001465267  -0.1361793685610     0.0     0.0
   15   0.0000000736856  -0.1361793706265     0.0     0.0
 --------------------------------------------------------
 Iterations converged
 QCISD correlation energy / hartree =        -0.136179370626535
 QCISD total energy / hartree       =       -76.120682216986125

 Singles contributions

 Doubles contributions

 Task  times  cpu:        0.6s     wall:        0.8s


                                NWChem Input Module
                                -------------------


                                 NWChem SCF Module
                                 -----------------



  ao basis        = "ao basis"
  functions       =    13
  atoms           =     3
  closed shells   =     5
  open shells     =     0
  charge          =   0.00
  wavefunction    = RHF 
  input vectors   = ./tce_h2o.movecs
  output vectors  = ./tce_h2o.movecs
  use symmetry    = T
  symmetry adapt  = T


 Summary of "ao basis" -> "ao basis" (cartesian)
 ------------------------------------------------------------------------------
       Tag                 Description            Shells   Functions and Types
 ---------------- ------------------------------  ------  ---------------------
 H                           6-31G                   2        2   2s
 O                           6-31G                   5        9   3s2p


      Symmetry analysis of basis
      --------------------------

        a1          7
        a2          0
        b1          4
        b2          2


  The SCF is already converged 

         Total SCF energy =    -75.984502846360

                   NWChem Extensible Many-Electron Theory Module
                   ---------------------------------------------

              ======================================================
                   This portion of the program was automatically
                  generated by a Tensor Contraction Engine (TCE).
                  The development of this portion of the program
                 and TCE was supported by US Department of Energy,
                Office of Science, Office of Basic Energy Science.
                      TCE is a product of Battelle and PNNL.
              Please cite: S.Hirata, J.Phys.Chem.A 107, 9887 (2003).
              ======================================================

            General Information
            -------------------
      Number of processors :     1
         Wavefunction type : Restricted Hartree-Fock
          No. of electrons :    10
           Alpha electrons :     5
            Beta electrons :     5
           No. of orbitals :    26
            Alpha orbitals :    13
             Beta orbitals :    13
        Alpha frozen cores :     0
         Beta frozen cores :     0
     Alpha frozen virtuals :     0
      Beta frozen virtuals :     0
         Spin multiplicity : singlet 
    Number of AO functions :    13
       Number of AO shells :     9
        Use of symmetry is : on 
      Symmetry adaption is : on 
         Schwarz screening : 0.10D-09

          Correlation Information
          -----------------------
          Calculation type : Configuration interaction singles & doubles                 
   Perturbative correction : none                                                        
            Max iterations :      100
        Residual threshold : 0.10D-06
     T(0) DIIS level shift : 0.00D+00
     L(0) DIIS level shift : 0.00D+00
     T(1) DIIS level shift : 0.00D+00
     L(1) DIIS level shift : 0.00D+00
     T(R) DIIS level shift : 0.00D+00
     T(I) DIIS level shift : 0.00D+00
   CC-T/L Amplitude update :  5-th order DIIS
                I/O scheme : Global Array Library
        L-threshold :  0.10D-06
        EOM-threshold :  0.10D-06
 no EOMCCSD initial starts read in
 TCE RESTART OPTIONS
 READ_INT:   F
 WRITE_INT:  F
 READ_TA:    F
 WRITE_TA:   F
 READ_XA:    F
 WRITE_XA:   F
 READ_IN3:   F
 WRITE_IN3:  F
 SLICE:      F
 D4D5:       F
 quantumc:   F
 qrotation:  F
 pwtce:      F
 qducc:      F
 nacto:                         0
 nrotv:                         0
 nrot:                          0

            Memory Information
            ------------------
          Available GA space size is      26214231 doubles
          Available MA space size is      26213204 doubles

 Maximum block size        32 doubles

 tile_dim =      4

 Block   Spin    Irrep     Size     Offset   Alpha
 -------------------------------------------------
   1    alpha     a1     3 doubles       0       1
   2    alpha     b1     1 doubles       3       2
   3    alpha     b2     1 doubles       4       3
   4    beta      a1     3 doubles       5       1
   5    beta      b1     1 doubles       8       2
   6    beta      b2     1 doubles       9       3
   7    alpha     a1     4 doubles      10       7
   8    alpha     b1     3 doubles      14       8
   9    alpha     b2     1 doubles      17       9
  10    beta      a1     4 doubles      18       7
  11    beta      b1     3 doubles      22       8
  12    beta      b2     1 doubles      25       9

 Global array virtual files algorithm will be used

 Parallel file system coherency ......... OK

 Fock matrix recomputed
 1-e file size   =               69
 1-e file name   = ./tce_h2o.f1
 Cpu & wall time / sec            0.0            0.0

 tce_ao2e: fast2e=1
 half-transformed integrals in memory

 2-e (intermediate) file size =           63375
 2-e (intermediate) file name = ./tce_h2o.v2i
 Cpu & wall time / sec            0.0            0.0

 tce_mo2e: fast2e=1
 2-e integrals stored in memory

 2-e file size   =            12790
 2-e file name   = ./tce_h2o.v2
 Cpu & wall time / sec            0.0            0.0
 T1-number-of-tasks                    3

 t1 file size   =               16
 t1 file name   = ./tce_h2o.t1
 t1 file handle =       -999
 T2-number-of-boxes                   33

 t2 file size   =              827
 t2 file name   = ./tce_h2o.t2
 t2 file handle =       -996

 CISD iterations
 --------------------------------------------------------
 Iter          Residuum       Correlation     Cpu    Wall
 --------------------------------------------------------
    1   0.0925450777292  -0.1294933525112     0.0     0.1
    2   0.0314989008976  -0.1260578296488     0.0     0.0
    3   0.0107463898591  -0.1298277425604     0.0     0.0
    4   0.0044368090105  -0.1302347292711     0.0     0.0
    5   0.0017944266275  -0.1305452745128     0.0     0.0
 MICROCYCLE DIIS UPDATE:                    5                    5
    6   0.0002556408814  -0.1306858400188     0.0     0.0
    7   0.0001016259075  -0.1306955924620     0.0     0.0
    8   0.0000398151287  -0.1306962803906     0.0     0.0
    9   0.0000196346537  -0.1306962358424     0.0     0.0
   10   0.0000087981096  -0.1306964343170     0.0     0.0
 MICROCYCLE DIIS UPDATE:                   10                    5
   11   0.0000011640623  -0.1306966018211     0.0     0.0
   12   0.0000004515070  -0.1306965475449     0.0     0.0
   13   0.0000001751650  -0.1306965851144     0.0     0.0
   14   0.0000000915098  -0.1306965858523     0.0     0.0
 --------------------------------------------------------
 Iterations converged
 CISD correlation energy / hartree =        -0.130696585852341
 CISD total energy / hartree       =       -76.115199432211924

 Singles contributions

 Doubles contributions

 Task  times  cpu:        0.4s     wall:        0.5s


                                NWChem Input Module
                                -------------------


                                 NWChem SCF Module
                                 -----------------



  ao basis        = "ao basis"
  functions       =    13
  atoms           =     3
  closed shells   =     5
  open shells     =     0
  charge          =   0.00
  wavefunction    = RHF 
  input vectors   = ./tce_h2o.movecs
  output vectors  = ./tce_h2o.movecs
  use symmetry    = T
  symmetry adapt  = T


 Summary of "ao basis" -> "ao basis" (cartesian)
 ------------------------------------------------------------------------------
       Tag                 Description            Shells   Functions and Types
 ---------------- ------------------------------  ------  ---------------------
 H                           6-31G                   2        2   2s
 O                           6-31G                   5        9   3s2p


      Symmetry analysis of basis
      --------------------------

        a1          7
        a2          0
        b1          4
        b2          2


  The SCF is already converged 

         Total SCF energy =    -75.984502846360

                   NWChem Extensible Many-Electron Theory Module
                   ---------------------------------------------

              ======================================================
                   This portion of the program was automatically
                  generated by a Tensor Contraction Engine (TCE).
                  The development of this portion of the program
                 and TCE was supported by US Department of Energy,
                Office of Science, Office of Basic Energy Science.
                      TCE is a product of Battelle and PNNL.
              Please cite: S.Hirata, J.Phys.Chem.A 107, 9887 (2003).
              ======================================================

            General Information
            -------------------
      Number of processors :     1
         Wavefunction type : Restricted Hartree-Fock
          No. of electrons :    10
           Alpha electrons :     5
            Beta electrons :     5
           No. of orbitals :    26
            Alpha orbitals :    13
             Beta orbitals :    13
        Alpha frozen cores :     0
         Beta frozen cores :     0
     Alpha frozen virtuals :     0
      Beta frozen virtuals :     0
         Spin multiplicity : singlet 
    Number of AO functions :    13
       Number of AO shells :     9
        Use of symmetry is : on 
      Symmetry adaption is : on 
         Schwarz screening : 0.10D-09

          Correlation Information
          -----------------------
          Calculation type : Configuration interaction singles, doubles, & triples       
   Perturbative correction : none                                                        
            Max iterations :      100
        Residual threshold : 0.10D-06
     T(0) DIIS level shift : 0.00D+00
     L(0) DIIS level shift : 0.00D+00
     T(1) DIIS level shift : 0.00D+00
     L(1) DIIS level shift : 0.00D+00
     T(R) DIIS level shift : 0.00D+00
     T(I) DIIS level shift : 0.00D+00
   CC-T/L Amplitude update :  5-th order DIIS
                I/O scheme : Global Array Library
        L-threshold :  0.10D-06
        EOM-threshold :  0.10D-06
 no EOMCCSD initial starts read in
 TCE RESTART OPTIONS
 READ_INT:   F
 WRITE_INT:  F
 READ_TA:    F
 WRITE_TA:   F
 READ_XA:    F
 WRITE_XA:   F
 READ_IN3:   F
 WRITE_IN3:  F
 SLICE:      F
 D4D5:       F
 quantumc:   F
 qrotation:  F
 pwtce:      F
 qducc:      F
 nacto:                         0
 nrotv:                         0
 nrot:                          0

            Memory Information
            ------------------
          Available GA space size is      26214231 doubles
          Available MA space size is      26213204 doubles

 Maximum block size        20 doubles

 tile_dim =      4

 Block   Spin    Irrep     Size     Offset   Alpha
 -------------------------------------------------
   1    alpha     a1     3 doubles       0       1
   2    alpha     b1     1 doubles       3       2
   3    alpha     b2     1 doubles       4       3
   4    beta      a1     3 doubles       5       1
   5    beta      b1     1 doubles       8       2
   6    beta      b2     1 doubles       9       3
   7    alpha     a1     4 doubles      10       7
   8    alpha     b1     3 doubles      14       8
   9    alpha     b2     1 doubles      17       9
  10    beta      a1     4 doubles      18       7
  11    beta      b1     3 doubles      22       8
  12    beta      b2     1 doubles      25       9

 Global array virtual files algorithm will be used

 Parallel file system coherency ......... OK

 Fock matrix recomputed
 1-e file size   =               69
 1-e file name   = ./tce_h2o.f1
 Cpu & wall time / sec            0.0            0.0

 tce_ao2e: fast2e=1
 half-transformed integrals in memory

 2-e (intermediate) file size =           63375
 2-e (intermediate) file name = ./tce_h2o.v2i
 Cpu & wall time / sec            0.0            0.0

 tce_mo2e: fast2e=1
 2-e integrals stored in memory

 2-e file size   =            12790
 2-e file name   = ./tce_h2o.v2
 Cpu & wall time / sec            0.0            0.0
 T1-number-of-tasks                    3

 t1 file size   =               16
 t1 file name   = ./tce_h2o.t1
 t1 file handle =       -999
 T2-number-of-boxes                   33

 t2 file size   =              827
 t2 file name   = ./tce_h2o.t2
 t2 file handle =       -996

 t3 file size   =            24052
 t3 file name   = ./tce_h2o.t3

 CISDT iterations
 --------------------------------------------------------
 Iter          Residuum       Correlation     Cpu    Wall
 --------------------------------------------------------
    1   0.2113071906185  -0.1294933525112     0.4     0.4
    2   0.0588849932850  -0.1260578296488     0.3     0.4
    3   0.0242185022701  -0.1308545330270     0.3     0.4
    4   0.0135455903304  -0.1310331098401     0.3     0.4
    5   0.0055837634645  -0.1315585764714     0.4     0.4
 MICROCYCLE DIIS UPDATE:                    5                    5
    6   0.0018313351235  -0.1317107030941     0.4     0.4
    7   0.0008314936088  -0.1317035839886     0.4     0.4
    8   0.0003771297274  -0.1317063221469     0.4     0.5
    9   0.0002540016218  -0.1317070772988     0.4     0.4
   10   0.0001228912104  -0.1317083936188     0.4     0.4
 MICROCYCLE DIIS UPDATE:                   10                    5
   11   0.0000318376164  -0.1317098035514     0.4     0.4
   12   0.0000135240463  -0.1317093734701     0.4     0.4
   13   0.0000064368539  -0.1317095824333     0.4     0.4
   14   0.0000042197858  -0.1317095120229     0.3     0.4
   15   0.0000020463260  -0.1317095345593     0.4     0.4
 MICROCYCLE DIIS UPDATE:                   15                    5
   16   0.0000005236191  -0.1317095119166     0.4     0.4
   17   0.0000002626441  -0.1317095223892     0.3     0.4
   18   0.0000001173207  -0.1317095232967     0.4     0.4
   19   0.0000000819125  -0.1317095239473     0.3     0.4
 --------------------------------------------------------
 Iterations converged
 CISDT correlation energy / hartree =        -0.131709523947302
 CISDT total energy / hartree       =       -76.116212370306897

 Singles contributions

 Doubles contributions

 Task  times  cpu:        7.1s     wall:        8.2s


                                NWChem Input Module
                                -------------------


                                 NWChem SCF Module
                                 -----------------



  ao basis        = "ao basis"
  functions       =    13
  atoms           =     3
  closed shells   =     5
  open shells     =     0
  charge          =   0.00
  wavefunction    = RHF 
  input vectors   = ./tce_h2o.movecs
  output vectors  = ./tce_h2o.movecs
  use symmetry    = T
  symmetry adapt  = T


 Summary of "ao basis" -> "ao basis" (cartesian)
 ------------------------------------------------------------------------------
       Tag                 Description            Shells   Functions and Types
 ---------------- ------------------------------  ------  ---------------------
 H                           6-31G                   2        2   2s
 O                           6-31G                   5        9   3s2p


      Symmetry analysis of basis
      --------------------------

        a1          7
        a2          0
        b1          4
        b2          2


  The SCF is already converged 

         Total SCF energy =    -75.984502846360

                   NWChem Extensible Many-Electron Theory Module
                   ---------------------------------------------

              ======================================================
                   This portion of the program was automatically
                  generated by a Tensor Contraction Engine (TCE).
                  The development of this portion of the program
                 and TCE was supported by US Department of Energy,
                Office of Science, Office of Basic Energy Science.
                      TCE is a product of Battelle and PNNL.
              Please cite: S.Hirata, J.Phys.Chem.A 107, 9887 (2003).
              ======================================================

            General Information
            -------------------
      Number of processors :     1
         Wavefunction type : Restricted Hartree-Fock
          No. of electrons :    10
           Alpha electrons :     5
            Beta electrons :     5
           No. of orbitals :    26
            Alpha orbitals :    13
             Beta orbitals :    13
        Alpha frozen cores :     0
         Beta frozen cores :     0
     Alpha frozen virtuals :     0
      Beta frozen virtuals :     0
         Spin multiplicity : singlet 
    Number of AO functions :    13
       Number of AO shells :     9
        Use of symmetry is : on 
      Symmetry adaption is : on 
         Schwarz screening : 0.10D-09

          Correlation Information
          -----------------------
          Calculation type : Second-order tensor many-body perturbation theory           
   Perturbative correction : none                                                        
            Max iterations :      100
        Residual threshold : 0.10D-06
     T(0) DIIS level shift : 0.00D+00
     L(0) DIIS level shift : 0.00D+00
     T(1) DIIS level shift : 0.00D+00
     L(1) DIIS level shift : 0.00D+00
     T(R) DIIS level shift : 0.00D+00
     T(I) DIIS level shift : 0.00D+00
   CC-T/L Amplitude update :  5-th order DIIS
                I/O scheme : Global Array Library
        L-threshold :  0.10D-06
        EOM-threshold :  0.10D-06
 no EOMCCSD initial starts read in
 TCE RESTART OPTIONS
 READ_INT:   F
 WRITE_INT:  F
 READ_TA:    F
 WRITE_TA:   F
 READ_XA:    F
 WRITE_XA:   F
 READ_IN3:   F
 WRITE_IN3:  F
 SLICE:      F
 D4D5:       F
 quantumc:   F
 qrotation:  F
 pwtce:      F
 qducc:      F
 nacto:                         0
 nrotv:                         0
 nrot:                          0

            Memory Information
            ------------------
          Available GA space size is      26214231 doubles
          Available MA space size is      26213204 doubles

 Maximum block size        32 doubles

 tile_dim =      4

 Block   Spin    Irrep     Size     Offset   Alpha
 -------------------------------------------------
   1    alpha     a1     3 doubles       0       1
   2    alpha     b1     1 doubles       3       2
   3    alpha     b2     1 doubles       4       3
   4    beta      a1     3 doubles       5       1
   5    beta      b1     1 doubles       8       2
   6    beta      b2     1 doubles       9       3
   7    alpha     a1     4 doubles      10       7
   8    alpha     b1     3 doubles      14       8
   9    alpha     b2     1 doubles      17       9
  10    beta      a1     4 doubles      18       7
  11    beta      b1     3 doubles      22       8
  12    beta      b2     1 doubles      25       9

 Global array virtual files algorithm will be used

 Parallel file system coherency ......... OK

 Fock matrix recomputed
 1-e file size   =               69
 1-e file name   = ./tce_h2o.f1
 Cpu & wall time / sec            0.0            0.0

 tce_ao2e: fast2e=1
 half-transformed integrals in memory

 2-e (intermediate) file size =           63375
 2-e (intermediate) file name = ./tce_h2o.v2i
 Cpu & wall time / sec            0.0            0.0

 tce_mo2e: fast2e=1
 2-e integrals stored in memory

 2-e file size   =            12790
 2-e file name   = ./tce_h2o.v2
 Cpu & wall time / sec            0.0            0.0
 T1-number-of-tasks                    3

 t1 file size   =               16
 t1 file name   = ./tce_h2o.t1
 t1 file handle =       -999
 T2-number-of-boxes                   33

 t2 file size   =              827
 t2 file name   = ./tce_h2o.t2
 t2 file handle =       -996

 MBPT(2) iterations
 --------------------------------------------------------
 Iter          Residuum       Correlation     Cpu    Wall
 --------------------------------------------------------
    1   0.0000000000000  -0.1294933525112     0.0     0.0
 --------------------------------------------------------
 Iterations converged
 MBPT(2) correlation energy / hartree =        -0.129493352511250
 MBPT(2) total energy / hartree       =       -76.113996198870836

 Task  times  cpu:        0.1s     wall:        0.1s


                                NWChem Input Module
                                -------------------


                                 NWChem SCF Module
                                 -----------------



  ao basis        = "ao basis"
  functions       =    13
  atoms           =     3
  closed shells   =     5
  open shells     =     0
  charge          =   0.00
  wavefunction    = RHF 
  input vectors   = ./tce_h2o.movecs
  output vectors  = ./tce_h2o.movecs
  use symmetry    = T
  symmetry adapt  = T


 Summary of "ao basis" -> "ao basis" (cartesian)
 ------------------------------------------------------------------------------
       Tag                 Description            Shells   Functions and Types
 ---------------- ------------------------------  ------  ---------------------
 H                           6-31G                   2        2   2s
 O                           6-31G                   5        9   3s2p


      Symmetry analysis of basis
      --------------------------

        a1          7
        a2          0
        b1          4
        b2          2


  The SCF is already converged 

         Total SCF energy =    -75.984502846360

                   NWChem Extensible Many-Electron Theory Module
                   ---------------------------------------------

              ======================================================
                   This portion of the program was automatically
                  generated by a Tensor Contraction Engine (TCE).
                  The development of this portion of the program
                 and TCE was supported by US Department of Energy,
                Office of Science, Office of Basic Energy Science.
                      TCE is a product of Battelle and PNNL.
              Please cite: S.Hirata, J.Phys.Chem.A 107, 9887 (2003).
              ======================================================

            General Information
            -------------------
      Number of processors :     1
         Wavefunction type : Restricted Hartree-Fock
          No. of electrons :    10
           Alpha electrons :     5
            Beta electrons :     5
           No. of orbitals :    26
            Alpha orbitals :    13
             Beta orbitals :    13
        Alpha frozen cores :     0
         Beta frozen cores :     0
     Alpha frozen virtuals :     0
      Beta frozen virtuals :     0
         Spin multiplicity : singlet 
    Number of AO functions :    13
       Number of AO shells :     9
        Use of symmetry is : on 
      Symmetry adaption is : on 
         Schwarz screening : 0.10D-09

          Correlation Information
          -----------------------
          Calculation type : Third-order tensor many-body perturbation theory            
   Perturbative correction : none                                                        
            Max iterations :      100
        Residual threshold : 0.10D-06
     T(0) DIIS level shift : 0.00D+00
     L(0) DIIS level shift : 0.00D+00
     T(1) DIIS level shift : 0.00D+00
     L(1) DIIS level shift : 0.00D+00
     T(R) DIIS level shift : 0.00D+00
     T(I) DIIS level shift : 0.00D+00
   CC-T/L Amplitude update :  5-th order DIIS
                I/O scheme : Global Array Library
        L-threshold :  0.10D-06
        EOM-threshold :  0.10D-06
 no EOMCCSD initial starts read in
 TCE RESTART OPTIONS
 READ_INT:   F
 WRITE_INT:  F
 READ_TA:    F
 WRITE_TA:   F
 READ_XA:    F
 WRITE_XA:   F
 READ_IN3:   F
 WRITE_IN3:  F
 SLICE:      F
 D4D5:       F
 quantumc:   F
 qrotation:  F
 pwtce:      F
 qducc:      F
 nacto:                         0
 nrotv:                         0
 nrot:                          0

            Memory Information
            ------------------
          Available GA space size is      26214231 doubles
          Available MA space size is      26213204 doubles

 Maximum block size        32 doubles

 tile_dim =      4

 Block   Spin    Irrep     Size     Offset   Alpha
 -------------------------------------------------
   1    alpha     a1     3 doubles       0       1
   2    alpha     b1     1 doubles       3       2
   3    alpha     b2     1 doubles       4       3
   4    beta      a1     3 doubles       5       1
   5    beta      b1     1 doubles       8       2
   6    beta      b2     1 doubles       9       3
   7    alpha     a1     4 doubles      10       7
   8    alpha     b1     3 doubles      14       8
   9    alpha     b2     1 doubles      17       9
  10    beta      a1     4 doubles      18       7
  11    beta      b1     3 doubles      22       8
  12    beta      b2     1 doubles      25       9

 Global array virtual files algorithm will be used

 Parallel file system coherency ......... OK

 Fock matrix recomputed
 1-e file size   =               69
 1-e file name   = ./tce_h2o.f1
 Cpu & wall time / sec            0.0            0.0

 tce_ao2e: fast2e=1
 half-transformed integrals in memory

 2-e (intermediate) file size =           63375
 2-e (intermediate) file name = ./tce_h2o.v2i
 Cpu & wall time / sec            0.0            0.0

 tce_mo2e: fast2e=1
 2-e integrals stored in memory

 2-e file size   =            12790
 2-e file name   = ./tce_h2o.v2
 Cpu & wall time / sec            0.0            0.0
 T1-number-of-tasks                    3

 t1 file size   =               16
 t1 file name   = ./tce_h2o.t1
 t1 file handle =       -999
 T2-number-of-boxes                   33

 t2 file size   =              827
 t2 file name   = ./tce_h2o.t2
 t2 file handle =       -996

 MBPT(2) iterations
 --------------------------------------------------------
 Iter          Residuum       Correlation     Cpu    Wall
 --------------------------------------------------------
    1   0.0000000000000  -0.1294933525112     0.0     0.0
 --------------------------------------------------------
 Iterations converged
 MBPT(2) correlation energy / hartree =        -0.129493352511250
 MBPT(2) total energy / hartree       =       -76.113996198870836

 MBPT(3) iterations
 --------------------------------------------------------
 Iter          Residuum       Correlation     Cpu    Wall
 --------------------------------------------------------
    1   0.0949377621009   0.0000000000000     0.0     0.0
    2   0.0000000000000  -0.0015080868417     0.0     0.0
 --------------------------------------------------------
 Iterations converged
 MBPT(3) correlation energy / hartree =        -0.001508086841698
 MBPT(3) total energy / hartree       =       -76.115504285712532

 Task  times  cpu:        0.1s     wall:        0.1s


                                NWChem Input Module
                                -------------------


 Summary of allocated global arrays
-----------------------------------
  No active global arrays



                         GA Statistics for process    0
                         ------------------------------

       create   destroy   get      put      acc     scatter   gather  read&inc
calls: 9190     9190     2.00e+06 1.62e+04 7.12e+05    0        0     7.52e+06 
number of processes/call -2.45e+12 6.43e+13 9.44e+12 0.00e+00 0.00e+00
bytes total:             7.92e+08 2.31e+07 4.67e+08 0.00e+00 0.00e+00 6.02e+07
bytes remote:            0.00e+00 0.00e+00 0.00e+00 0.00e+00 0.00e+00 0.00e+00
Max memory consumed for GA by this process: 2919960 bytes

MA_summarize_allocated_blocks: starting scan ...
MA_summarize_allocated_blocks: scan completed: 0 heap blocks, 0 stack blocks
MA usage statistics:

	allocation statistics:
					      heap	     stack
					      ----	     -----
	current number of blocks	         0	         0
	maximum number of blocks	        17	        36
	current total bytes		         0	         0
	maximum total bytes		     80104	  22509384
	maximum total K-bytes		        81	     22510
	maximum total M-bytes		         1	        23


                                     CITATION
                                     --------
                Please cite the following reference when publishing
                           results obtained with NWChem:

          E. Apr, E. J. Bylaska, W. A. de Jong, N. Govind, K. Kowalski,
       T. P. Straatsma, M. Valiev, H. J. J. van Dam, Y. Alexeev, J. Anchell,
       V. Anisimov, F. W. Aquino, R. Atta-Fynn, J. Autschbach, N. P. Bauman,
     J. C. Becca, D. E. Bernholdt, K. Bhaskaran-Nair, S. Bogatko, P. Borowski,
        J. Boschen, J. Brabec, A. Bruner, E. Caut, Y. Chen, G. N. Chuev,
      C. J. Cramer, J. Daily, M. J. O. Deegan, T. H. Dunning Jr., M. Dupuis,
   K. G. Dyall, G. I. Fann, S. A. Fischer, A. Fonari, H. Frchtl, L. Gagliardi,
      J. Garza, N. Gawande, S. Ghosh, K. Glaesemann, A. W. Gtz, J. Hammond,
       V. Helms, E. D. Hermes, K. Hirao, S. Hirata, M. Jacquelin, L. Jensen,
   B. G. Johnson, H. Jnsson, R. A. Kendall, M. Klemm, R. Kobayashi, V. Konkov,
      S. Krishnamoorthy, M. Krishnan, Z. Lin, R. D. Lins, R. J. Littlefield,
      A. J. Logsdail, K. Lopata, W. Ma, A. V. Marenich, J. Martin del Campo,
   D. Mejia-Rodriguez, J. E. Moore, J. M. Mullin, T. Nakajima, D. R. Nascimento,
    J. A. Nichols, P. J. Nichols, J. Nieplocha, A. Otero-de-la-Roza, B. Palmer,
    A. Panyala, T. Pirojsirikul, B. Peng, R. Peverati, J. Pittner, L. Pollack,
   R. M. Richard, P. Sadayappan, G. C. Schatz, W. A. Shelton, D. W. Silverstein,
   D. M. A. Smith, T. A. Soares, D. Song, M. Swart, H. L. Taylor, G. S. Thomas,
            V. Tipparaju, D. G. Truhlar, K. Tsemekhman, T. Van Voorhis,
     . Vzquez-Mayagoitia, P. Verma, O. Villa, A. Vishnu, K. D. Vogiatzis,
        D. Wang, J. H. Weare, M. J. Williamson, T. L. Windus, K. Woliski,
        A. T. Wong, Q. Wu, C. Yang, Q. Yu, M. Zacharias, Z. Zhang, Y. Zhao,
                                and R. J. Harrison
                        "NWChem: Past, present, and future
                         J. Chem. Phys. 152, 184102 (2020)
                               doi:10.1063/5.0004997

                                      AUTHORS
                                      -------
     E. Apra, E. J. Bylaska, N. Govind, K. Kowalski, M. Valiev, W. A. de Jong,
      T. P. Straatsma, H. J. J. van Dam, D. Wang, T. L. Windus, N. P. Bauman,
       A. Panyala, J. Hammond, J. Autschbach, K. Bhaskaran-Nair, J. Brabec,
    K. Lopata, S. A. Fischer, S. Krishnamoorthy, M. Jacquelin, W. Ma, M. Klemm,
       O. Villa, Y. Chen, V. Anisimov, F. Aquino, S. Hirata, M. T. Hackler,
           Eric Hermes, L. Jensen, J. E. Moore, J. C. Becca, V. Konjkov,
            D. Mejia-Rodriguez, T. Risthaus, M. Malagoli, A. Marenich,
   A. Otero-de-la-Roza, J. Mullin, P. Nichols, R. Peverati, J. Pittner, Y. Zhao,
        P.-D. Fan, A. Fonari, M. J. Williamson, R. J. Harrison, J. R. Rehr,
      M. Dupuis, D. Silverstein, D. M. A. Smith, J. Nieplocha, V. Tipparaju,
      M. Krishnan, B. E. Van Kuiken, A. Vazquez-Mayagoitia, M. Swart, Q. Wu,
   T. Van Voorhis, A. A. Auer, M. Nooijen, L. D. Crosby, E. Brown, G. Cisneros,
     G. I. Fann, H. Fruchtl, J. Garza, K. Hirao, R. A. Kendall, J. A. Nichols,
       K. Tsemekhman, K. Wolinski, J. Anchell, D. E. Bernholdt, P. Borowski,
       T. Clark, D. Clerc, H. Dachsel, M. J. O. Deegan, K. Dyall, D. Elwood,
      E. Glendening, M. Gutowski, A. C. Hess, J. Jaffe, B. G. Johnson, J. Ju,
        R. Kobayashi, R. Kutteh, Z. Lin, R. Littlefield, X. Long, B. Meng,
      T. Nakajima, S. Niu, L. Pollack, M. Rosing, K. Glaesemann, G. Sandrone,
      M. Stave, H. Taylor, G. Thomas, J. H. van Lenthe, A. T. Wong, Z. Zhang.

 Total times  cpu:       25.4s     wall:       30.2s
